738
Atoms. Timestep: 0
3 7.36807 20.8649 18.2956
4 8.2019 21.7465 17.3701
4 9.65222 21.8426 17.8571
4 10.4872 22.7288 16.9255
4 11.9384 22.8245 17.4128
3 12.7743 23.711 16.4822
3 2.12323 13.8587 14.3609
4 3.43479 14.4655 14.8515
4 4.42345 13.3742 15.2774
4 5.73981 13.9868 15.7697
4 6.72894 12.8946 16.1954
3 8.04554 13.506 16.6885
3 25.6984 13.5715 4.60745
4 25.096 12.3553 5.30551
4 25.9281 11.0961 5.03787
4 25.3206 9.87626 5.74029
4 26.1536 8.6165 5.47257
3 25.5466 7.39583 6.17403
3 26.122 8.45925 1.1138
4 27.5261 7.8626 1.0748
4 27.6067 6.58391 1.91638
4 29.0183 5.98697 1.87525
4 29.0986 4.7074 2.71715
3 0.509866 4.10985 2.67728
3 21.3553 17.9927 29.1451
4 22.6087 18.6355 28.5578
4 23.52 17.5836 27.9153
4 24.778 18.2323 27.3263
4 25.6895 17.1796 26.6832
3 26.9482 17.8271 26.0943
3 1.80095 26.2599 11.6457
4 3.25568 25.8146 11.7665
4 3.36568 24.4847 12.5209
4 4.82799 24.0401 12.6407
4 4.9377 22.7093 13.3953
3 6.39971 22.2639 13.5162
3 12.1703 6.78336 10.818
4 12.9856 6.3436 9.60508
4 12.0854 6.1263 8.38348
4 12.9071 5.68467 7.16686
4 12.0062 5.46764 5.94464
3 12.8268 5.02534 4.72748
3 8.75518 12.848 18.7424
4 10.1177 13.4175 19.1275
4 10.9537 12.383 19.8895
4 12.3217 12.958 20.2749
4 13.1581 11.9225 21.037
3 14.5261 12.4966 21.4235
3 16.0959 3.57077 23.6399
4 16.3286 2.67968 22.423
4 15.1305 1.75546 22.1776
4 15.3672 0.861674 20.9547
4 14.1682 29.9373 20.7093
3 14.404 29.0425 19.4869
3 21.5563 18.1702 6.06403
4 20.236 18.5986 6.69842
4 19.0639 17.7852 6.13776
4 17.7392 18.2178 6.77684
4 16.5667 17.4035 6.2159
3 15.2412 17.8357 6.85383
3 9.74771 1.37472 20.6297
4 10.65 2.46627 20.0609
4 12.0781 2.34139 20.6039
4 12.9819 3.4391 20.0308
4 14.4108 3.3137 20.574
3 15.3155 4.41134 20.002
3 4.78781 5.13818 7.92679
4 5.27658 3.7031 8.10223
4 4.76566 2.80317 6.97136
4 5.25822 1.36242 7.15032
4 4.74711 0.462286 6.01848
3 5.23854 29.021 6.19673
3 19.566 25.9762 7.20352
4 20.7749 26.6008 6.51239
4 22.0814 25.9707 7.00805
4 23.2938 26.6001 6.31208
4 24.601 25.9692 6.808
3 25.8142 26.5983 6.11313
3 15.2384 18.3451 9.361
4 16.6365 17.7767 9.58792
4 16.6024 16.6018 10.572
4 18.008 16.0331 10.7979
4 17.9735 14.8574 11.7823
3 19.3788 14.2882 12.0095
3 18.8789 7.2076 10.4365
4 17.8719 7.45769 9.31736
4 18.5686 7.53393 7.95404
4 17.5546 7.7852 6.83194
4 18.2519 7.86111 5.46794
3 17.2389 8.11299 4.34504
3 3.27845 3.97648 7.52628
4 3.31508 4.36152 9.0026
4 4.68863 4.91777 9.3947
4 4.72232 5.30361 10.8781
4 6.09667 5.86044 11.27
3 6.13177 6.24606 12.7534
3 19.2489 9.85789 12.5369
4 20.7275 9.83433 12.9141
4 21.5871 9.33133 11.7489
4 23.0717 9.30879 12.1308
4 23.9316 8.80576 10.9646
3 25.4165 8.78219 11.3456
3 26.7578 19.013 13.1876
4 26.4725 19.556 11.7902
4 25.1848 20.3875 11.7727
4 24.9008 20.9315 10.3678
4 23.6125 21.7637 10.3507
3 23.3272 22.3078 8.94608
3 26.1252 28.4628 22.3322
4 27.5997 28.5686 22.7112
4 28.1371 27.2263 23.2203
4 29.6184 27.3357 23.6002
4 0.155867 25.9924 24.1093
3 1.63699 26.1008 24.4901
3 22.9021 8.61778 17.8092
4 24.0182 9.65352 17.7061
4 24.9148 9.62542 18.9491
4 26.0349 10.6668 18.8426
4 26.932 10.6382 20.0863
3 28.0521 11.6797 19.9812
3 29.3253 6.14851 19.8584
4 28.8598 7.60079 19.916
4 28.8819 8.24374 18.5246
4 28.4139 9.70237 18.5856
4 28.4358 10.3453 17.1933
3 27.9685 11.8042 17.2532
3 4.56229 13.8979 25.9129
4 5.1921 15.0147 26.7407
4 6.7005 14.797 26.9055
4 7.33026 15.9203 27.7374
4 8.83957 15.7024 27.9019
3 9.47037 16.8248 28.7342
3 8.12497 1.88041 26.0807
4 9.57394 2.31952 26.2725
4 10.3204 1.36631 27.2127
4 11.7755 1.80995 27.4033
4 12.5222 0.855833 28.3438
3 13.9773 1.29885 28.5357
3 12.4574 17.2488 4.2944
4 13.4154 17.0687 5.46863
4 13.1001 15.7866 6.24752
4 14.064 15.6085 7.4263
4 13.7484 14.3255 8.20525
3 14.7114 14.1466 9.38472
3 12.4405 0.894548 7.12983
4 13.0765 29.8278 6.24297
4 13.5172 28.6137 7.06852
4 14.1557 27.5439 6.17502
4 14.5963 26.3291 7.00128
3 15.2356 25.2589 6.10886
3 21.6459 8.27708 27.4683
4 22.6678 7.34855 26.8181
4 24.0469 7.50207 27.4694
4 25.0712 6.56819 26.8142
4 26.4509 6.7218 27.4662
3 27.4762 5.7888 26.8114
3 28.0226 17.1253 9.83651
4 29.2125 16.8274 8.92844
4 0.358181 16.1788 9.71367
4 1.55184 15.8808 8.79892
4 2.69788 15.2316 9.58482
3 3.89243 14.9337 8.67117
3 16.9434 15.4173 14.9914
4 18.386 15.9153 15.0012
4 19.2727 15.0232 15.8773
4 20.721 15.5259 15.8852
4 21.608 14.6329 16.7616
3 23.0565 15.135 16.7708
3 29.577 1.25284 16.9108
4 0.890867 1.86963 17.3825
4 1.41693 1.15881 18.6347
4 2.73664 1.78055 19.106
4 3.26292 1.06892 20.3587
3 4.58237 1.69024 20.8314
3 25.8067 8.18132 23.5193
4 25.1044 7.29871 24.5474
4 23.7695 6.77473 24.0059
4 23.0664 5.88857 25.0407
4 21.7309 5.3642 24.4985
3 21.0266 4.47835 25.5327
3 0.660596 22.5806 30.732
4 29.536 22.4911 29.7041
4 29.9647 23.095 28.362
4 28.8331 23.0036 27.3317
4 29.2625 23.6076 25.9888
3 28.1314 23.5174 24.9578
3 25.4091 2.49584 7.8997
4 25.5363 3.97848 7.56103
4 25.8526 4.18066 6.07478
4 25.9798 5.67082 5.73767
4 26.2959 5.87279 4.25045
3 26.424 7.36265 3.91226
3 2.79901 25.6129 9.19871
4 3.12461 26.8912 8.43123
4 4.30505 26.6774 7.47696
4 4.62972 27.963 6.70754
4 5.81066 27.7487 5.75259
3 6.13668 29.0339 4.98301
3 1.68513 13.7109 26.7052
4 2.31991 12.9759 25.528
4 3.36827 11.9656 26.0076
4 4.00408 11.2289 24.8229
4 5.05277 10.2179 25.3032
3 5.68976 9.48104 24.1193
3 21.2522 19.0098 20.8074
4 22.7578 18.9626 21.0524
4 23.1978 17.5715 21.5226
4 24.7106 17.5272 21.7678
4 25.1505 16.1351 22.2379
3 26.6631 16.0898 22.4841
3 25.2475 16.704 13.3348
4 26.6889 16.5221 12.8675
4 27.6789 16.8304 13.9964
4 29.1258 16.6468 13.5241
4 0.116134 16.9552 14.654
3 1.56349 16.7725 14.1826
3 15.8432 29.3871 30.2306
4 17.3144 29.0163 30.0651
4 17.4768 27.5235 29.7569
4 18.9555 27.1542 29.5911
4 19.1176 25.6606 29.2824
3 20.596 25.2899 29.1171
3 3.34883 9.44613 1.05898
4 4.52018 10.4235 1.01749
4 5.82757 9.70466 0.66574
4 7.00224 10.689 0.624836
4 8.31017 9.96944 0.272554
3 9.48575 10.9527 0.231964
3 4.51637 20.3667 17.3367
4 4.69954 21.3532 16.1867
4 4.3462 22.7802 16.6212
4 4.53115 23.7687 15.4641
4 4.17784 25.1965 15.8993
3 4.36183 26.1859 14.7427
3 25.5348 29.1597 8.78776
4 26.9375 28.7089 9.18568
4 27.0089 27.1842 9.32616
4 28.419 26.7345 9.72591
4 28.4902 25.2088 9.86609
3 29.8998 24.7579 10.2664
3 23.6603 9.34462 5.61811
4 25.1666 9.27835 5.3822
4 25.7353 7.9235 5.81901
4 27.2484 7.85996 5.58084
4 27.8171 6.50412 6.01771
3 29.3304 6.43963 5.78057
3 10.4558 26.0298 11.1203
4 11.9736 26.1286 11.2458
4 12.3949 26.3385 12.7046
4 13.9199 26.4373 12.8275
4 14.3412 26.647 14.2873
3 15.8661 26.7466 14.4113
3 5.54272 5.83733 89.7041
4 6.15767 7.21579 89.9295
4 7.38193 7.13127 0.84811
4 7.99739 8.51735 1.07259
4 9.22251 8.43241 1.99151
3 9.8385 9.81807 2.21723
3 16.0665 26.7996 15.5937
4 16.4748 26.5449 14.1454
4 16.1941 25.0937 13.7392
4 16.6053 24.841 12.284
4 16.324 23.3889 11.8778
3 16.7354 23.1348 10.4229
3 13.7074 29.366 10.9543
4 15.2184 29.1547 10.992
4 15.5649 27.7046 11.3485
4 17.0832 27.4955 11.3857
4 17.4295 26.0444 11.7421
3 18.9477 25.8342 11.7802
3 17.2444 3.99219 7.10239
4 16.7314 4.99558 8.13156
4 17.8526 5.93128 8.59757
4 17.3343 6.93793 9.63123
4 18.4563 7.87423 10.0971
3 17.9393 8.88099 11.1313
3 3.38659 2.81334 7.01194
4 4.8697 2.91418 6.66649
4 5.68204 1.8405 7.39936
4 7.17128 1.94433 7.05038
4 7.98378 0.869713 7.78358
3 9.47336 0.972956 7.43584
3 7.8868 19.4403 26.138
4 9.36067 19.158 26.4157
4 9.57639 17.6955 26.8209
4 11.0577 17.415 27.0993
4 11.2733 15.9514 27.5043
3 12.7542 15.6699 27.7836
3 17.7751 0.486918 6.49184
4 17.5195 1.84759 7.13399
4 18.828 2.48807 7.61104
4 18.568 3.8546 8.25556
4 19.8774 4.49532 8.73249
3 19.6186 5.86172 9.3778
3 17.5845 26.6487 25.9078
4 18.9317 26.7506 25.1981
4 19.3493 25.3987 24.6084
4 20.7028 25.5042 23.8962
4 21.1202 24.1515 23.3059
3 22.474 24.2556 22.594
3 24.0169 9.2696 5.84139
4 24.5659 10.1721 6.94286
4 26.0918 10.0612 7.03877
4 26.6403 10.9688 8.14596
4 28.1671 10.8579 8.24147
3 28.7167 11.7647 9.34881
3 28.6459 24.2977 5.89255
4 28.5386 25.6553 6.58125
4 28.2328 26.7656 5.56948
4 28.1257 28.128 6.26419
4 27.8194 29.2387 5.25163
3 27.7127 0.601781 5.94515
3 15.842 6.06815 20.0478
4 16.2508 6.55052 18.6588
4 17.6923 6.14257 18.3343
4 18.1001 6.62848 16.9385
4 19.5424 6.21988 16.614
3 19.9515 6.70581 15.2186
3 20.045 7.36178 24.8887
4 20.8515 6.45122 25.8104
4 20.4637 4.98142 25.6127
4 21.2754 4.06931 26.5398
4 20.8873 2.59872 26.3416
3 21.698 1.68565 27.2687
3 22.1322 9.82954 4.5629
4 22.2173 10.7112 5.8057
4 22.5435 12.1618 5.43286
4 22.6284 13.0449 6.6832
4 22.9544 14.4964 6.30979
3 23.0401 15.3804 7.55947
3 19.0747 18.654 8.68165
4 20.596 18.6525 8.56075
4 21.2553 18.254 9.88602
4 22.7833 18.2534 9.76144
4 23.4427 17.8543 11.0875
3 24.9709 17.854 10.9643
3 5.29691 18.4179 12.7591
4 5.00042 18.1664 14.2348
4 3.51328 17.868 14.4567
4 3.21859 17.6158 15.9399
4 1.73059 17.3171 16.1615
3 1.43456 17.0653 17.6446
3 9.10438 28.2557 2.52145
4 8.84274 29.4987 1.67554
4 7.41816 0.0228272 1.8893
4 7.15836 1.27134 1.03835
4 5.73299 1.79567 1.25268
3 5.4718 3.04389 0.401706
3 27.9748 20.8554 17.7066
4 29.2126 21.2 18.53
4 29.2924 20.3378 19.795
4 0.536743 20.6863 20.6201
4 0.616476 19.8232 21.8855
3 1.86013 20.1712 22.7117
3 16.7107 27.8109 14.326
4 18.0505 27.8271 15.0566
4 18.3623 26.457 15.6693
4 19.7086 26.4764 16.4026
4 20.0205 25.1053 17.0152
3 21.3663 25.1236 17.7493
3 0.310339 0.954742 30.224
4 29.0422 1.45873 29.5406
4 28.7534 2.91625 29.9174
4 27.4791 3.41963 29.2296
4 27.1905 4.87811 29.6065
3 25.916 5.38242 28.9197
3 5.88877 9.62727 0.637275
4 4.39935 9.59403 0.968394
4 4.13975 8.8284 2.27078
4 2.6429 8.79672 2.60072
4 2.3835 8.03087 3.90406
3 0.886829 7.99798 4.23471
3 12.1131 27.3078 21.1227
4 13.3518 28.1066 21.5186
4 14.5999 27.217 21.5388
4 15.8424 28.0221 21.9368
4 17.0911 27.1317 21.9567
3 18.3342 27.9357 22.3551
3 10.0386 5.03084 28.124
4 11.444 4.80873 28.6759
4 12.0988 3.57674 28.0408
4 13.5103 3.35624 28.5971
4 14.1652 2.12366 27.9612
3 15.5766 1.90178 28.5172
3 18.4355 19.4638 19.7519
4 19.9441 19.3027 19.5863
4 20.4244 17.968 20.1674
4 21.9399 17.809 19.9996
4 22.4202 16.4733 20.5808
3 23.9358 16.3136 20.4141
3 28.2581 5.69596 20.8757
4 28.9002 7.00322 20.4198
4 29.8246 6.77534 19.2184
4 0.468078 8.09016 18.7628
4 1.39263 7.86188 17.5604
3 2.03723 9.17599 17.1043
3 11.8653 3.50027 10.8164
4 11.7495 4.71751 11.7297
4 12.7456 5.80967 11.3237
4 12.6269 7.03097 12.2428
4 13.6235 8.1237 11.8361
3 13.5062 9.34534 12.755
3 16.1735 21.3692 20.1652
4 15.1883 22.3933 20.7218
4 13.8635 21.7293 21.1136
4 12.876 22.7603 21.6723
4 11.5506 22.0956 22.0646
3 10.562 23.1258 22.6229
3 13.9855 19.7278 20.5084
4 12.556 19.199 20.5865
4 11.6992 20.0585 21.523
4 10.264 19.5249 21.5994
4 9.40692 20.3853 22.5362
3 7.97156 19.8522 22.6139
3 13.1724 16.134 13.0541
4 12.0085 15.8308 12.1146
4 10.7383 15.4877 12.9013
4 9.57107 15.1836 11.955
4 8.30029 14.8406 12.7424
3 7.13241 14.5358 11.7971
3 17.6191 22.3936 23.5102
4 17.7308 20.905 23.1927
4 17.4587 20.0526 24.4374
4 17.5716 18.5579 24.1155
4 17.2991 17.7053 25.361
3 17.4123 16.2104 25.0403
3 19.2055 14.1567 2.07799
4 19.5673 14.0987 3.55948
4 21.074 13.8931 3.75268
4 21.4344 13.8353 5.24171
4 22.9421 13.6299 5.4347
3 23.3036 13.5712 6.92344
3 14.2173 10.978 13.5605
4 15.7387 11.0895 13.5169
4 16.4014 9.76228 13.9029
4 17.9295 9.87743 13.8582
4 18.5923 8.54918 14.2442
3 20.1205 8.6633 14.2004
3 24.088 15.4182 21.5156
4 25.2459 15.4467 20.5218
4 25.8093 14.0401 20.2894
4 26.9722 14.0719 19.2908
4 27.5355 12.6644 19.0583
3 28.6989 12.695 18.0603
3 20.0812 8.24642 21.4225
4 19.706 7.43178 20.1877
4 19.5937 8.32683 18.9483
4 19.2167 7.50576 17.7097
4 19.1047 8.40155 16.4698
3 18.7271 7.58162 15.2306
3 20.0263 3.22428 18.1619
4 21.1908 3.03236 19.1295
4 21.3032 4.21358 20.1001
4 22.4737 4.01793 21.0707
4 22.5857 5.19983 22.0418
3 23.7563 5.00559 23.0126
3 15.0318 17.2144 12.9672
4 15.9482 15.9969 12.8827
4 15.1392 14.7081 12.6976
4 16.0623 13.4871 12.613
4 15.2526 12.1977 12.4275
3 16.1747 10.9758 12.3434
3 13.238 11.4686 27.1087
4 14.4861 10.6082 26.9324
4 14.5123 9.45832 27.9457
4 15.7671 8.59595 27.7661
4 15.7928 7.44527 28.7799
3 17.0476 6.58252 28.6017
3 9.36329 13.3203 23.6573
4 10.1963 12.8704 22.4603
4 9.7158 11.5144 21.931
4 10.5544 11.0652 20.7288
4 10.0732 9.70848 20.1992
3 10.9115 9.25789 18.9973
3 26.5693 6.07281 15.6405
4 27.2699 6.77543 14.4809
4 26.4481 6.66718 13.1915
4 27.1543 7.37383 12.0286
4 26.3316 7.26561 10.7387
3 27.0372 7.97141 9.57488
3 16.341 11.1005 24.2774
4 15.2098 10.7955 23.2995
4 13.9096 11.4867 23.7255
4 12.7752 11.1785 22.7413
4 11.4745 11.8705 23.1677
3 10.3392 11.5625 22.1845
3 8.43393 20.6183 1.43571
4 7.37286 20.0782 2.39046
4 5.97261 20.5534 1.98642
4 4.90901 20.0094 2.94724
4 3.50804 20.4848 2.54252
3 2.44361 19.9418 3.50305
3 11.0191 10.832 1.76267
4 11.6516 9.44389 1.80896
4 10.9872 8.49993 0.800341
4 11.6247 7.1065 0.849187
4 10.9599 6.16232 89.8397
3 11.5962 4.76831 89.888
3 21.2063 17.7394 6.84435
4 22.4131 17.5177 7.75195
4 22.014 17.5925 9.23009
4 23.2281 17.3694 10.1392
4 22.8284 17.4441 11.6181
3 24.0419 17.2218 12.5283
3 27.2078 18.6625 14.2794
4 27.0391 19.1253 12.8349
4 25.7525 19.9406 12.6626
4 25.5858 20.404 11.2107
4 24.2986 21.2201 11.0386
3 24.1305 21.6835 9.5869
3 8.97307 15.2305 24.333
4 7.47944 15.4971 24.4975
4 7.13023 15.8021 25.9587
4 5.62935 16.0695 26.1208
4 5.28031 16.3749 27.5828
3 3.77949 16.6418 27.7462
3 20.0536 17.0364 5.13293
4 20.8443 17.7916 4.06828
4 21.7949 18.8114 4.70558
4 22.5877 19.5684 3.63375
4 23.539 20.5885 4.27174
3 24.3319 21.3466 3.20077
3 0.68483 24.5392 16.5476
4 2.09962 25.0492 16.8071
4 2.74033 25.5804 15.5198
4 4.16128 26.092 15.7837
4 4.80198 26.6237 14.4955
3 6.22328 27.1351 14.758
3 8.55727 13.6875 9.86056
4 8.47051 14.4329 11.1895
4 9.53833 15.529 11.279
4 9.44867 16.2759 12.6149
4 10.517 17.3728 12.704
3 10.4287 18.12 14.0399
3 5.0478 16.865 6.09452
4 6.55323 17.1064 6.1621
4 7.22978 16.1139 7.1145
4 8.74177 16.3588 7.18028
4 9.41847 15.3654 8.13305
3 10.9305 15.6097 8.20013
3 18.6817 12.4468 21.2843
4 18.7878 13.9674 21.3586
4 20.196 14.4031 21.7793
4 20.2995 15.931 21.8531
4 21.7087 16.3666 22.2737
3 21.8132 17.8944 22.3484
3 17.478 27.3205 18.1181
4 18.5423 26.2267 18.1285
4 18.6632 25.5601 16.7534
4 19.7329 24.462 16.767
4 19.8538 23.7954 15.391
3 20.9229 22.6966 15.4035
3 12.6532 11.0713 17.083
4 13.4335 11.753 18.2034
4 14.7655 11.0399 18.4623
4 15.547 11.7269 19.5883
4 16.8799 11.0133 19.8469
3 17.662 11.6991 20.9731
3 21.8448 0.170381 7.74401
4 21.6904 0.760204 6.34495
4 22.7589 1.82514 6.07315
4 22.6012 2.41571 4.66718
4 23.6707 3.48099 4.39542
3 23.5136 4.07278 2.98987
3 12.1591 28.8588 26.4519
4 10.7367 28.5179 26.0165
4 10.6332 28.4255 24.4899
4 9.20335 28.083 24.0556
4 9.10024 27.9903 22.5281
3 7.67057 27.6484 22.0926
3 15.1841 7.74031 23.7837
4 16.6953 7.5668 23.6608
4 17.1254 6.15607 24.0787
4 18.6438 5.98485 23.9541
4 19.0738 4.57313 24.3721
3 20.5922 4.4009 24.2485
3 20.9759 19.5828 17.824
4 21.0015 19.5727 19.3498
4 19.591 19.4016 19.9251
4 19.6199 19.3919 21.4579
4 18.2085 19.2204 22.0332
3 18.2362 19.2111 23.566
3 24.745 29.3675 15.9749
4 24.6706 29.7218 17.4575
4 24.6396 28.4594 18.3265
4 24.5648 28.8185 19.8151
4 24.5342 27.5551 20.6843
3 24.4588 27.913 22.1731
3 16.3981 11.9062 7.07227
4 17.9224 11.9553 7.12789
4 18.5044 10.5983 7.53957
4 20.0356 10.6508 7.59457
4 20.6177 9.29276 8.0062
3 22.1489 9.34423 8.06215
3 6.10337 8.36663 18.7918
4 5.10023 9.24507 19.5342
4 5.56121 9.51769 20.9705
4 4.55161 10.4002 21.7136
4 5.01327 10.6731 23.1506
3 4.00409 11.5551 23.895
3 17.4137 6.348 23.9782
4 17.9557 7.68877 23.4907
4 18.2095 7.66564 21.9791
4 18.7539 9.01368 21.4925
4 19.0074 8.99032 19.98
3 19.5524 10.3377 19.4922
3 27.3686 28.4715 32.0716
4 27.1594 29.477 30.9427
4 27.7373 28.9541 29.6227
4 27.5257 29.9662 28.4908
4 28.1038 29.4425 27.1701
3 27.8932 0.454085 26.0375
3 14.3339 6.20174 13.2151
4 15.327 5.17269 13.748
4 14.602 3.94469 14.3103
4 15.6021 2.9129 14.8447
4 14.8764 1.68419 15.407
3 15.8755 0.651902 15.9424
3 17.3542 12.2878 18.8616
4 17.0515 11.0181 19.6525
4 15.9505 10.1944 18.9751
4 15.6487 8.91979 19.7718
4 14.5472 8.0956 19.0936
3 14.2441 6.821 19.8898
3 17.7139 21.9128 17.9436
4 18.7019 20.7499 17.9187
4 18.7118 20.0045 19.2581
4 19.7051 18.837 19.23
4 19.7146 18.0911 20.5702
3 20.7081 16.9237 20.5435
3 1.33698 2.36467 19.7322
4 1.51296 0.89355 19.3662
4 1.44461 0.689711 17.8484
4 1.62169 29.2111 17.4839
4 1.55357 29.0075 15.9652
3 1.72991 27.5292 15.5995
3 26.9154 4.54929 18.6105
4 27.762 5.15213 17.4929
4 29.2581 4.97369 17.7754
4 0.105851 5.58019 16.6512
4 1.60269 5.40122 16.934
3 2.45155 6.00792 15.8107
3 12.5647 25.7843 10.6623
4 12.9588 26.9557 9.767
4 11.813 27.3406 8.82432
4 12.2118 28.5174 7.9263
4 11.065 28.9026 6.98342
3 11.463 0.0789804 6.08441
3 1.74839 9.52162 27.3817
4 2.49459 10.6723 28.0512
4 3.83904 10.2031 28.6187
4 4.58619 11.361 29.2906
4 5.9315 10.8914 29.8581
3 6.67933 12.0484 30.5308
3 12.3391 10.6842 26.9471
4 13.8651 10.6972 26.9632
4 14.4248 9.33609 27.3921
4 15.9577 9.35222 27.4072
4 16.5175 7.99012 27.8361
3 18.0504 8.00523 27.8523
3 9.93493 5.1162 27.8245
4 8.54674 5.21264 28.4511
4 8.37982 6.52521 29.2252
4 6.98454 6.61918 29.8535
4 6.81773 7.93273 30.6276
3 5.42295 8.02755 31.2569
3 8.59858 0.254773 2.79095
4 8.55178 0.770278 4.22663
4 9.96397 0.979809 4.78485
4 9.91371 1.49761 6.22699
4 11.3268 1.70745 6.78514
3 11.2778 2.22468 8.22754
3 9.39047 20.2535 18.4511
4 9.98253 20.1983 19.8566
4 11.0871 19.1395 19.9498
4 11.6798 19.0864 21.3627
4 12.7852 18.0271 21.4555
3 13.3783 17.9727 22.8682
3 22.0757 8.94371 5.40714
4 23.2194 8.88338 4.39839
4 23.5418 7.43476 4.0145
4 24.6908 7.37741 3.0012
4 25.013 5.92786 2.61705
3 26.1624 5.86921 1.60419
3 17.5272 23.2943 24.8388
4 17.5475 21.8586 24.3216
4 18.865 21.5491 23.6018
4 18.8824 20.1064 23.0835
4 20.2009 19.7969 22.3636
3 20.2192 18.3545 21.8443
3 4.44065 6.69426 13.1324
4 5.62426 5.86197 13.6176
4 5.35154 4.3629 13.4497
4 6.54215 3.52956 13.9379
4 6.2691 2.0297 13.7695
3 7.45884 1.19526 14.258
3 11.4373 16.3812 6.35394
4 12.0086 17.5902 7.0895
4 12.5712 17.1893 8.45793
4 13.1443 18.4057 9.19433
4 13.7074 18.0043 10.5634
3 14.2804 19.22 11.301
3 26.1391 23.2282 6.9117
4 27.1652 24.2485 7.39659
4 27.9953 23.6886 8.55729
4 29.0251 24.7157 9.04215
4 29.8557 24.1551 10.2033
3 0.885496 25.1816 10.6894
3 25.2914 5.72895 4.19881
4 26.3239 4.67861 3.79922
4 26.4103 3.56225 4.84616
4 27.4482 2.5088 4.44204
4 27.5341 1.39178 5.48961
3 28.5723 0.337992 5.08685
3 27.0904 13.2275 3.05733
4 26.2098 12.447 4.02919
4 26.8676 11.1212 4.4282
4 25.9808 10.3395 5.40438
4 26.6395 9.0131 5.80368
3 25.7532 8.23018 6.77942
3 17.6751 24.9086 7.77377
4 16.2574 24.4593 8.11612
4 16.0747 24.313 9.63105
4 14.6497 23.8616 9.9718
4 14.4671 23.7157 11.4877
3 13.0426 23.2637 11.8296
3 23.7194 10.222 21.9088
4 22.2268 10.2197 22.2272
4 21.4444 11.0631 21.2141
4 19.9456 11.0589 21.5366
4 19.1629 11.9025 20.5225
3 17.6639 11.8996 20.8444
3 5.90481 24.1606 7.54556
4 6.88817 23.0043 7.70396
4 7.89679 23.286 8.82338
4 8.88315 22.1229 8.98007
4 9.89201 22.405 10.1004
3 10.8794 21.2427 10.2576
738
Atoms. Timestep: 10000
3 11.5518 25.9913 20.3363
4 10.2327 25.8762 21.0951
4 10.2258 24.6446 22.0077
4 8.89957 24.5317 22.7685
4 8.89311 23.2995 23.6819
3 7.56706 23.1852 24.4428
3 27.7627 8.0676 15.4216
4 26.3565 8.24684 15.9869
4 26.3309 9.32925 17.072
4 24.9172 9.50699 17.6379
4 24.8919 10.5903 18.7234
3 23.4787 10.7685 19.2904
3 29.2132 15.3358 89.442
4 27.8297 14.78 89.7679
4 27.845 13.2477 89.8079
4 26.454 12.6925 0.135507
4 26.4698 11.1593 0.17576
3 25.0791 10.6029 0.502658
3 3.3533 28.8804 81.0979
4 3.34239 0.363587 81.4573
4 2.04051 0.750373 82.1682
4 2.03251 2.24066 82.5279
4 0.729894 2.62729 83.2394
3 0.720478 4.11759 83.5991
3 27.0158 22.1986 38.1961
4 28.135 21.343 37.6093
4 27.6149 20.4575 36.4712
4 28.7413 19.5993 35.8838
4 28.2206 18.7136 34.7449
3 29.3461 17.8545 34.1571
3 8.75844 0.818879 10.1577
4 7.85807 29.6238 10.4581
4 8.51143 28.6816 11.4756
4 7.60473 27.4823 11.7753
4 8.2586 26.5399 12.7936
3 7.35303 25.3398 13.0937
3 12.5666 9.30976 1.05335
4 12.369 10.5434 0.176926
4 13.6522 10.89 89.4132
4 13.4506 12.1295 88.5338
4 14.7345 12.4758 87.7694
3 14.5343 13.7156 86.8901
3 12.1013 15.0751 27.9437
4 13.2392 15.3531 26.9654
4 14.5143 15.7726 27.7057
4 15.6554 16.0512 26.7205
4 16.9311 16.4706 27.4615
3 18.0728 16.7501 26.4772
3 14.9633 0.938953 26.9556
4 14.3636 2.00422 26.042
4 14.9611 1.92365 24.6327
4 14.3568 2.99484 23.7174
4 14.9546 2.91377 22.3072
3 14.3515 3.98496 21.3911
3 14.7059 22.8083 4.63048
4 15.8111 21.98 3.98112
4 15.2509 21.0868 2.86836
4 16.3633 20.2561 2.21804
4 15.8025 19.3627 1.10449
3 16.9139 18.531 0.453804
3 9.3937 5.05302 20.0671
4 9.52356 3.53936 20.2123
4 10.8979 3.05453 19.7371
4 11.0254 1.53383 19.8841
4 12.4007 1.04907 19.4088
3 12.5291 29.5283 19.5548
3 25.945 3.00316 11.1376
4 26.4539 3.10127 12.573
4 25.6841 4.16753 13.3606
4 26.1976 4.26375 14.8019
4 25.427 5.33048 15.5898
3 25.94 5.42804 17.0312
3 22.7179 1.10746 6.02051
4 22.2912 0.652187 4.62775
4 23.4286 29.9108 3.9161
4 22.997 29.4548 2.51747
4 24.1352 28.7127 1.80579
3 23.705 28.2567 0.406719
3 20.2177 18.9452 9.24977
4 19.363 17.9645 8.45166
4 20.2286 16.879 7.80181
4 19.3674 15.8956 7.00087
4 20.2337 14.8094 6.35104
3 19.3736 13.8257 5.54926
3 21.7663 2.06064 8.75608
4 21.4587 3.03294 7.62066
4 21.2443 4.45431 8.15314
4 20.9356 5.4286 7.0104
4 20.7215 6.85075 7.54346
3 20.412 7.82588 6.40162
3 6.27945 12.7658 12.11
4 5.11442 12.4282 11.1838
4 4.89422 10.9134 11.1025
4 3.72342 10.5774 10.1715
4 3.50314 9.06164 10.0905
3 2.3329 8.72438 9.15925
3 22.7106 11.9504 7.10679
4 22.4912 11.1518 8.38868
4 21.8018 12.0045 9.45985
4 21.5829 11.1997 10.7462
4 20.8928 12.0531 11.8177
3 20.6739 11.2495 13.1048
3 23.6754 26.8745 7.64664
4 24.1602 26.9897 9.08915
4 25.687 27.1116 9.15094
4 26.1709 27.2271 10.6011
4 27.6986 27.3494 10.6626
3 28.1837 27.4644 12.1123
3 1.82155 27.1775 28.5026
4 1.91897 27.8222 29.8824
4 3.0229 27.1683 30.7212
4 3.11833 27.818 32.1066
4 4.22318 27.1638 32.9455
3 4.31914 27.8122 34.3314
3 24.8267 12.2539 26.9985
4 23.7788 11.5826 27.8819
4 24.3281 11.3202 29.2888
4 23.2734 10.6459 30.1737
4 23.8232 10.3838 31.5814
3 22.7694 9.70888 32.4671
3 28.1856 10.4027 21.4931
4 29.2454 9.44461 20.9565
4 29.0371 9.17056 19.4627
4 0.103091 8.20795 18.9266
4 29.8946 7.93418 17.432
3 0.959695 6.97113 16.8948
3 7.37957 14.5706 33.0601
4 7.79475 14.284 34.5005
4 6.76455 13.3948 35.206
4 7.18431 13.1087 36.6525
4 6.15348 12.2188 37.3581
3 6.57189 11.9325 38.805
3 6.87819 3.57268 33.8132
4 7.01579 2.08285 33.5122
4 7.46634 1.30726 34.7553
4 7.60367 29.8112 34.4499
4 8.05418 29.0354 35.6939
3 8.19246 27.5392 35.3895
3 11.2119 24.3924 87.0747
4 10.8696 22.9463 87.4222
4 11.8411 21.9711 86.7478
4 11.4948 20.5194 87.0986
4 12.4672 19.5439 86.4239
3 12.1215 18.0918 86.7736
3 19.4216 26.2338 5.20977
4 18.8553 27.2381 4.20994
4 18.0509 26.532 3.1127
4 17.4834 27.5433 2.10999
4 16.6782 26.8365 1.01243
3 16.1107 27.8469 0.00870129
3 25.4919 11.346 34.7014
4 25.4912 9.87934 34.2793
4 26.8462 9.47361 33.6886
4 26.8424 8.00002 33.2656
4 28.1985 7.59427 32.6749
3 28.1957 6.12094 32.251
3 27.2099 23.0596 7.4251
4 28.4704 22.534 6.74395
4 28.9455 21.2286 7.39217
4 0.211687 20.7032 6.70588
4 0.686579 19.3969 7.35448
3 1.95319 18.8708 6.66938
3 17.2766 12.7179 16.8632
4 18.7172 13.2166 16.792
4 19.6878 12.0636 16.5122
4 21.134 12.5675 16.4413
4 22.1049 11.4137 16.161
3 23.5516 11.9164 16.0904
3 3.88441 29.951 20.2616
4 3.02877 29.493 21.4394
4 3.89283 28.8656 22.5392
4 3.03062 28.4066 23.7208
4 3.89548 27.779 24.8212
3 3.03423 27.3191 26.0032
3 27.669 3.50761 30.1929
4 26.2607 3.98297 29.8465
4 26.225 5.50164 29.6412
4 24.8092 5.97611 29.2935
4 24.7738 7.49564 29.0878
3 23.3584 7.97138 28.7406
3 2.41027 23.5995 31.2367
4 1.09075 23.0729 31.794
4 0.170486 22.5864 30.6688
4 28.846 22.058 31.2317
4 27.9255 21.571 30.1056
3 26.6003 21.043 30.6673
3 29.0628 5.17347 3.25055
4 28.4791 6.52342 3.65798
4 28.4982 6.69678 5.18093
4 27.9113 8.0536 5.58707
4 27.9308 8.22689 7.11092
3 27.3435 9.58318 7.51833
3 1.61599 26.8593 2.91898
4 0.338256 26.1825 2.43076
4 29.7101 26.9604 1.26889
4 28.4269 26.2782 0.780693
4 27.7987 27.0566 89.618
3 26.515 26.3756 89.1293
3 3.71155 10.077 32.7619
4 3.1542 10.8293 31.5567
4 3.88256 12.1626 31.3524
4 3.32055 12.9159 30.1412
4 4.04974 14.2497 29.9368
3 3.48812 15.0043 28.7261
3 27.68 22.1138 24.3988
4 28.4428 21.0239 25.1468
4 27.6354 20.5053 26.3421
4 28.4041 19.4108 27.0914
4 27.5958 18.8918 28.2871
3 28.3639 17.7976 29.0376
3 29.2025 12.4458 12.5935
4 29.526 13.9329 12.7082
4 28.258 14.7564 12.9607
4 28.5861 16.2495 13.0754
4 27.3172 17.0732 13.3284
3 27.644 18.5667 13.4427
3 16.299 28.7335 34.4869
4 15.5075 28.0082 35.5715
4 14.1406 27.5535 35.0475
4 13.3478 26.8253 36.1391
4 11.9803 26.3703 35.6143
3 11.1864 25.6425 36.7054
3 10.4266 16.7915 78.4525
4 9.84637 16.635 79.8554
4 10.1371 17.8707 80.7147
4 9.55309 17.7105 82.1231
4 9.84383 18.9472 82.9825
3 9.26084 18.7878 84.3915
3 2.02033 18.2358 19.9382
4 3.11745 18.9775 19.1796
4 2.52902 20.09 18.3045
4 3.63338 20.8331 17.5438
4 3.04434 21.9463 16.6684
3 4.14779 22.6897 15.9068
3 4.05271 0.288016 10.2483
4 2.82616 29.4432 9.91513
4 2.91013 28.885 8.48995
4 1.67678 28.0369 8.15827
4 1.76124 27.4783 6.73233
3 0.528051 26.6305 6.39927
3 27.259 6.6597 84.9747
4 27.7208 5.44629 85.7769
4 29.066 5.71538 86.4609
4 29.5272 4.49482 87.2658
4 0.873055 4.76448 87.9502
3 1.33564 3.54431 88.755
3 7.34725 19.6087 13.577
4 6.86808 20.297 14.852
4 7.98212 21.1473 15.4731
4 7.49783 21.8374 16.7535
4 8.61262 22.6884 17.3745
3 8.12966 23.3786 18.6555
3 6.24009 5.32383 84.1369
4 7.03732 4.34206 84.9911
4 6.48733 4.28022 86.4206
4 7.2901 3.29332 87.2761
4 6.73937 3.23144 88.7063
3 7.5418 2.24525 89.563
3 18.221 25.4 11.8217
4 18.941 24.0907 12.1322
4 19.9376 23.7319 11.0241
4 20.6593 22.4163 11.3388
4 21.6566 22.0578 10.23
3 22.3784 20.742 10.5433
3 17.9831 0.0218729 6.1441
4 17.5159 29.7897 7.57829
4 18.7066 29.6968 8.53918
4 18.2342 29.4635 9.9789
4 19.4258 29.3709 10.9401
3 18.9546 29.137 12.3802
3 20.063 6.20225 4.05974
4 18.9878 5.60938 3.15326
4 17.661 6.3619 3.30449
4 16.5831 5.76412 2.39279
4 15.2556 6.51748 2.5441
3 14.1767 5.92016 1.63328
3 9.66149 27.2906 88.2311
4 8.83233 27.7408 89.4306
4 7.46973 28.2854 88.9874
4 6.63921 28.7368 0.19444
4 5.27578 29.2815 89.7507
3 4.44456 29.7338 0.956875
3 8.63269 20.0824 34.5016
4 7.9257 21.4133 34.261
4 7.95022 21.7915 32.7757
4 7.23937 23.1288 32.5372
4 7.26381 23.5067 31.0509
3 6.55374 24.8442 30.8112
3 23.8399 3.70223 5.16552
4 24.6438 2.81946 4.21497
4 26.1411 2.87954 4.53822
4 26.9459 1.99189 3.58182
4 28.4439 2.05197 3.9057
3 29.2499 1.16513 2.94948
3 22.6494 0.21203 27.7065
4 22.6941 28.6872 27.7523
4 23.9485 28.15 27.0539
4 23.9906 26.6182 27.1015
4 25.2459 26.0809 26.403
3 25.2888 24.5491 26.4494
3 29.757 11.7939 9.8665
4 29.9306 11.2557 8.44897
4 0.434644 12.3495 7.50057
4 0.608099 11.806 6.07757
4 1.1127 12.9005 5.12893
3 1.28595 12.3583 3.7054
3 0.500341 1.395 86.4004
4 1.72805 0.547284 86.7217
4 1.7243 29.2422 85.9175
4 2.95862 28.3929 86.2424
4 2.95474 27.0874 85.4374
3 4.18836 26.2369 85.7619
3 15.6003 29.1096 14.4498
4 16.7417 29.8807 15.1068
4 16.4905 1.39198 15.0531
4 17.6386 2.16381 15.7138
4 17.3869 3.67585 15.6602
3 18.5347 4.44881 16.32
3 22.5136 0.311405 39.4648
4 21.8167 0.301626 38.1071
4 22.6657 1.00943 37.045
4 21.9632 0.997992 35.6824
4 22.8131 1.70599 34.6199
3 22.1112 1.69573 33.2569
3 24.7129 2.47499 0.0793741
4 24.4622 3.50495 88.9815
4 23.01 3.99537 89.005
4 22.7613 5.02976 87.9011
4 21.3083 5.5205 87.9251
3 21.0582 6.55454 86.8212
3 22.115 22.74 5.61771
4 22.5602 23.4182 4.32509
4 21.4022 23.5169 3.32556
4 21.8524 24.1986 2.02826
4 20.6934 24.2974 1.02849
3 21.1427 24.9784 89.7305
3 0.758125 20.1947 13.6223
4 1.98201 19.285 13.683
4 1.57198 17.8174 13.8504
4 2.80338 16.9062 13.911
4 2.3928 15.4379 14.0782
3 3.62348 14.5257 14.1396
3 10.7142 26.9658 78.4412
4 9.18867 26.9282 78.4595
4 8.67119 25.4854 78.4373
4 7.13859 25.4509 78.4558
4 6.62113 24.0072 78.4338
3 5.08853 23.9714 78.4517
3 4.69024 21.6694 30.0482
4 5.37666 22.5291 28.9905
4 4.48438 22.7041 27.7564
4 5.17654 23.5681 26.6958
4 4.28338 23.7433 25.4612
3 4.97478 24.6066 24.3996
3 23.3278 1.99991 13.0427
4 22.2122 2.42114 13.995
4 22.0478 1.4099 15.1353
4 20.9265 1.8357 16.0902
4 20.7625 0.823851 17.2311
3 19.641 1.2483 18.1864
3 1.56427 6.05803 38.4678
4 0.2962 5.90494 39.303
4 0.242604 4.53037 39.9794
4 28.9678 4.37959 40.8176
4 28.9146 3.00426 41.4945
3 27.6399 2.85207 42.3326
3 6.33653 10.5853 85.7983
4 5.78287 10.615 84.3765
4 6.38997 11.7694 83.571
4 5.83193 11.7966 82.1434
4 6.4398 12.9515 81.3376
3 5.882 12.9801 79.9099
3 16.2065 28.7088 22.7865
4 15.6162 27.6545 23.7187
4 14.6815 28.2922 24.7528
4 14.0902 27.2307 25.6877
4 13.1547 27.8691 26.722
3 12.5632 26.8086 27.658
3 12.441 4.87247 33.7309
4 13.5698 4.47679 34.6788
4 13.0998 3.42357 35.6886
4 14.2357 3.02816 36.6392
4 13.7652 1.97411 37.6492
3 14.9002 1.57835 38.6009
3 23.4959 20.1785 16.3294
4 22.9869 19.6219 15.0027
4 21.4591 19.7111 14.9158
4 20.9508 19.1512 13.5821
4 19.4221 19.2409 13.4953
3 18.9126 18.6807 12.1622
3 2.1266 8.50679 28.3114
4 1.19226 8.76856 29.4893
4 0.486887 10.1219 29.3451
4 29.5491 10.382 30.5297
4 28.8433 11.736 30.3849
3 27.9057 11.9975 31.5693
3 3.36929 5.02768 17.4902
4 4.60188 4.37634 16.8692
4 5.46438 3.69505 17.9377
4 6.70164 3.04176 17.311
4 7.56427 2.35989 18.3803
3 8.80223 1.70674 17.7548
3 10.7876 20.0072 16.4249
4 12.0732 20.5919 15.8466
4 13.296 19.7768 16.2824
4 14.5857 20.3665 15.7
4 15.8091 19.5505 16.136
3 17.0995 20.1396 15.5547
3 14.5351 23.8125 29.1372
4 15.0711 22.8361 28.094
4 13.9665 22.4031 27.1233
4 14.5079 21.4224 26.0767
4 13.4026 20.9895 25.1054
3 13.9427 20.0083 24.0586
3 16.2391 16.2464 13.9435
4 15.3059 16.2672 12.7361
4 15.4962 15.0175 11.869
4 14.5575 15.0412 10.6571
4 14.7479 13.7905 9.7899
3 13.8101 13.8135 8.57726
3 14.4086 14.03 40.8519
4 14.4416 15.4744 40.3603
4 14.1855 15.5503 38.8508
4 14.2193 17.0023 38.36
4 13.9627 17.078 36.8497
3 13.9969 18.5296 36.3575