LAMMPS (11 Aug 2017)
OMP_NUM_THREADS environment is not set. Defaulting to 1 thread. (../comm.cpp:90)
  using 1 OpenMP thread(s) per MPI task

#==Simulation Settings==#
			#
  units		real    # Define units in Å, fs, kcal/mol, K, atm
  boundary	p p p	# The simulation cell is periodic in all directions of the space
  dimension 	3	# The simulation cell is 3-Dimensional
  atom_style 	full	# Define the system as a molecular set (atoms with bonds or no-bonds, etc)
			#
#=======================#

#=========Simulation Variables==========#
					#
  variable	Cutoff	equal	12	# Cutoff Distance for intermolecular interactions (Å)
  variable	T	equal	298.15	# Temperature (K)
					#
  timestep	2			# Timestep (fs)
  thermo	100			# Print thermodynamic output each 100 steps
					#
#---------------------------------------#
#== Box Parameters and Molecular PPTs ==#
					#
  variable      X       equal   30.0	# x
  variable      Y       equal   30.0	# y
  variable      Z       equal   90.0	# z dimension length (Å)
					#
  variable      Rho1	equal   0.65478	# Density of Hexane at 25 C (g/cm3)
  variable      PM1	equal   86.1756	# Molar Mass of Hexane (g/mol)
					#
#----------Load Molecules---------------#
					#
   molecule mol1 hexane.in 		# Load a molecule file
Read molecule mol1:
  6 atoms with 4 types
  5 bonds with 2 types
  4 angles with 2 types
  3 dihedrals with 1 types
  0 impropers with 0 types
					# (you may add new molecules)
#---------------------------------------------------------------------------------------#
# Calculate the number of molecules to add in the sym box as a function of Rho, PM and  #
# XYZ cell parameters this variable fills 1/3 of the simulation cell (1 var per molec)	#
#---------------------------------------------------------------------------------------#
   variable	N1	equal	floor(${X}*${Y}*(${Z}/3)/1e24*6.023E23*${Rho1}/${PM1})	#
   variable	N1	equal	floor(30*${Y}*(${Z}/3)/1e24*6.023E23*${Rho1}/${PM1})	
   variable	N1	equal	floor(30*30*(${Z}/3)/1e24*6.023E23*${Rho1}/${PM1})	
   variable	N1	equal	floor(30*30*(90/3)/1e24*6.023E23*${Rho1}/${PM1})	
   variable	N1	equal	floor(30*30*(90/3)/1e24*6.023E23*0.65478/${PM1})	
   variable	N1	equal	floor(30*30*(90/3)/1e24*6.023E23*0.65478/86.1756)	
#=======================================================================================#

#=========================== Box Creation ==============================#
									#
  lattice custom 1. a1 $X 0. 0. a2 0. $Y 0. a3 0. 0. $Z basis 0. 0. 0.	#
  lattice custom 1. a1 30 0. 0. a2 0. $Y 0. a3 0. 0. $Z basis 0. 0. 0.	
  lattice custom 1. a1 30 0. 0. a2 0. 30 0. a3 0. 0. $Z basis 0. 0. 0.	
  lattice custom 1. a1 30 0. 0. a2 0. 30 0. a3 0. 0. 90 basis 0. 0. 0.	
Lattice spacing in x,y,z = 30 30 90
  region sym block 0 1 0 1 0 1 units lattice				#
  create_box 4 sym bond/types 2 angle/types 2 dihedral/types 1 extra/bond/per/atom 10 extra/angle/per/atom 10 extra/dihedral/per/atom 40 extra/special/per/atom 25
Created orthogonal box = (0 0 0) to (30 30 90)
  1 by 1 by 1 MPI processor grid
									#
#=============== Region Definition & Atom Creation======================#
									#
   region  Liquid	block 	0  1   0   1   0   0.33 units lattice	# cubic region
   create_atoms 0	random  ${N1}	298437	Liquid mol mol1 301709	# add molecs to that region
   create_atoms 0	random  123	298437	Liquid mol mol1 301709	
WARNING: Molecule attributes do not match system attributes (../molecule.cpp:1369)
Created 738 atoms
									# (you may add new regions
#=======================================================================# and new create_atoms)

#================================OUTPUT VARIABLES=======================================#
											#
  variable	IFT	equal	(-((zhi-zlo)/2.0)*(((pxx+pyy)/2.0)-pzz))*0.0101325 	# Calculate IFT
  variable      TotEng  equal etotal							# Calculate Etotal
  fix averages  all     ave/time 1 10000 10000 	v_TotEng v_IFT 	file lammps.ave         #
											#
  dump 		trj all xyz 10000 lammps.xyz     					# Write traj. each 10K timesteps
  thermo_style 	custom step temp pzz vol pe ke etotal	v_IFT				# What to print (you may add new keys)
											#
#=======================================================================================#

#======= Minimization Process With Soft Potential ======#
							#
  include	potential.ff				# Load the whole FF
# Force Field parameters file containing:

# --------------
# | FOR STYLES |
# --------------
#========================================================
  pair_style      	lj/cut  ${Cutoff}		# <- Comment for charged systems
  pair_style      	lj/cut  12		
#  pair_style      	lj/cut/coul/long ${Cutoff}	# <- Unccoment for charged systems
  bond_style    	harmonic			#
  angle_style   	harmonic			#
  dihedral_style	opls				#
  improper_style	none				#
#========================================================

# ------------------
# | FOR ATOM TYPES |
# ------------------
# type 1 : O (water)
# type 2 : H (water)
# type 3 : CH3 (Terminal Aliphatic UA)
# type 4 : CH2 (Aliphatic UA)
#================================================
  mass  1               15.99940		#
  mass  2               1.007970		#
  mass  3               15.03461		#
  mass  4               14.02660		#
#-----------------------------------------------#
  set type	1 charge	-0.82 		#
  0 settings made for charge
  set type	2 charge	 0.41 		#
  0 settings made for charge
  set type	3 charge	 0.00 		#
  246 settings made for charge
  set type	4 charge	 0.00 		#
  492 settings made for charge
#-----------------------------------------------#
						#
# LJ potential:   i  j   eps      sig		#
#-----------------------------------------------#
  pair_coeff      1  1	0.1554  3.16557		#
  pair_coeff      2  2	0.0000  0.00000		#
  pair_coeff      3  3	0.1750  3.90500		#
  pair_coeff      4  4	0.1180	3.90500		#
						#
  pair_modify tail yes mix arithmetic		#
#================================================

# ------------------
# | FOR BOND TYPES |
# ------------------
# type 1 : O-H (water)
# type 2 : CHx-CHx (Generic Aliphatic UA)
#================================================
  bond_coeff            1	450.0	1       #
  bond_coeff		2	260.0	1.526   #
#================================================

# -------------------
# | FOR ANGLE TYPES |
# -------------------
# type 1 : H-O-H (water)
# type 2 : CHx-CHx-CHx (Generic Aliphatic UA)
#================================================
  angle_coeff           1	55.0	109.47  #
  angle_coeff           2	63.0	112.40  #
#================================================

# ----------------------
# | FOR DIHEDRAL TYPES |
# ----------------------
# type 1 : CHx-CHx-CHx-CHx (Generic Aliphatic UA)
#====================================================
  dihedral_coeff        1	-3.40 1.25 3.10 0.0 #
#====================================================

# ----------------------
# | FOR IMPROPER TYPES |
# ----------------------
# no improper types
#====================================================
#====================================================

							#
  pair_style soft 3					# Change the LJ pair by Soft
  pair_coeff * * 1					# Soft parameters
							#
  fix label1 all rigid/nvt molecule temp 10 10 200	# Time evolution scheme
123 rigid bodies with 738 atoms
    run 10000						# run during 10000 steps
Neighbor list info ...
  update every 1 steps, delay 10 steps, check yes
  max neighbors/atom: 2000, page size: 100000
  master list distance cutoff = 5
  ghost atom cutoff = 5
  binsize = 2.5, bins = 12 12 36
  1 neighbor lists, perpetual/occasional/extra = 1 0 0
  (1) pair soft, perpetual
      attributes: half, newton on
      pair build: half/bin/newton
      stencil: half/bin/3d/newton
      bin: standard
Per MPI rank memory allocation (min/avg/max) = 24.8 | 24.8 | 24.8 Mbytes
Step Temp Pzz Volume PotEng KinEng TotEng v_IFT 
       0            0 2.4059649e-13        81000     498.2472            0     498.2472   -120.38465 
     100    195.44248     39.83862        81000    211.14794    142.73134    353.87928   -79.107251 
     200    109.96685     64.91917        81000     73.00638    80.308624      153.315   -7.3603763 
     300    56.325789     11.73597        81000    39.816637    41.134637    80.951275   -4.7582541 
     400     32.54076   -3.1393442        81000    31.580794    23.764467    55.345262   -7.1222238 
     500    21.930673   -5.7020648        81000     27.55118    16.015937    43.567116   -6.1094303 
     600    15.991469   -6.2022738        81000    25.871254    11.678545    37.549799   -5.6728128 
     700    12.802387   -5.1907274        81000    25.006338    9.3495634    34.355902    -4.913834 
     800    10.664968  -0.39602832        81000    24.781821    7.7886099    32.570431   -3.1465338 
     900    9.9043574    4.4743797        81000    24.603088     7.233137    31.836225  -0.92613155 
    1000    9.9275197    4.2162223        81000    24.411737    7.2500524     31.66179   -0.9446445 
    1100    10.229411    6.6139225        81000    24.563871    7.4705234    32.034395  -0.98410174 
    1200    10.866416    8.5624044        81000    24.559463    7.9357268     32.49519    -1.097535 
    1300     10.22133     5.850072        81000    24.501672    7.4646216    31.966293   -1.2269095 
    1400    9.3295118   -3.0804814        81000    24.409703    6.8133281    31.223031   -1.8768148 
    1500    9.3842398    9.9598859        81000     24.55786    6.8532959    31.411156 -0.072408393 
    1600    10.389147    11.321347        81000    24.393716    7.5871784    31.980895   0.52031545 
    1700    10.384356  -0.16644831        81000     24.45266    7.5836791    32.036339   -2.5484598 
    1800    9.5120745    2.3878839        81000    24.391508    6.9466534    31.338162   -1.0757061 
    1900    9.7307437    13.540468        81000     24.44023    7.1063472    31.546577    1.3575032 
    2000    10.646616    12.388949        81000    24.301997    7.7752075    32.077204     1.729264 
    2100    10.074582    4.5886122        81000    24.427202    7.3574516    31.784654    -1.662672 
    2200    9.0756607     5.301148        81000    24.569624    6.6279411    31.197565   -1.5388073 
    2300    9.7383629    5.4115017        81000    24.386384    7.1119114    31.498296  -0.66158976 
    2400    10.085142    9.9335987        81000     24.29079     7.365164    31.655954   0.80472128 
    2500    10.290863     13.13321        81000    24.492605    7.5154017    32.008007    1.2669295 
    2600    10.166491    8.9359352        81000    24.515368     7.424573    31.939941   0.96683303 
    2700    10.097833    5.3680642        81000     24.44503     7.374432    31.819462 -0.013541036 
    2800    10.534846    5.0582062        81000    24.340116    7.6935822    32.033698   -1.2441629 
    2900    10.011583    8.4592144        81000      24.3512    7.3114433    31.662643  -0.47453082 
    3000     10.16776    7.5140688        81000    24.400207    7.4254992    31.825707  -0.35277033 
    3100    10.158737   0.56379654        81000    24.344216    7.4189099    31.763126   -1.0537648 
    3200     9.872849    5.5369126        81000    24.368499    7.2101265    31.578626  -0.67979214 
    3300    9.8167917    8.1014621        81000    24.208077    7.1691879    31.377265 -0.0055922136 
    3400    9.7219304    5.2082396        81000    24.185772    7.0999108    31.285682   0.46349462 
    3500    9.7984996    2.5240737        81000    24.217047    7.1558292    31.372876 -0.0019133363 
    3600     9.751793    4.5612434        81000    24.250478    7.1217194    31.372198  -0.24592683 
    3700    10.208997    10.462766        81000    24.198901     7.455615    31.654516 -0.044617937 
    3800    10.460956    5.5044126        81000    24.193742    7.6396201    31.833362   0.08231238 
    3900    9.5831087    6.7373095        81000    24.235028    6.9985295    31.233557    1.5775274 
    4000    10.248343    6.1620741        81000    24.236663    7.4843488    31.721011   0.49943884 
    4100    10.298724    6.1267665        81000    24.294765    7.5211426    31.815908  -0.26825442 
    4200    9.8872919    5.9166077        81000    24.361162    7.2206741    31.581836  -0.86926216 
    4300    9.9763739    5.0731902        81000    24.281848    7.2857305    31.567579   0.07254291 
    4400    9.8148969    4.4043395        81000     24.30015    7.1678041    31.467954    0.2220939 
    4500    9.9353176    5.2335278        81000    24.245217    7.2557472    31.500964   -1.0322323 
    4600    9.9169708    6.8698583        81000    24.310436    7.2423485    31.552785  -0.72894858 
    4700    9.9503533    7.7866183        81000    24.392925    7.2667277    31.659652  -0.36485377 
    4800    10.909696    6.6596845        81000    24.342082    7.9673344    32.309416   0.72598442 
    4900    10.235711    5.8395756        81000    24.314213    7.4751239    31.789337    1.4635542 
    5000    9.2826069    7.1248451        81000    24.280432    6.7790735    31.059505  -0.10049923 
    5100    9.6819892    5.6100143        81000    24.188334    7.0707419    31.259076   0.17103838 
    5200     10.21126    5.8268546        81000    24.229854    7.4572672    31.687121   0.24545372 
    5300    10.776821    5.5425139        81000    24.214121    7.8702957    32.084417  -0.12521126 
    5400    9.7127734    5.5534154        81000     24.18935    7.0932234    31.282573   0.48968996 
    5500    9.0860729    6.2688103        81000    24.269511    6.6355451    30.905056  0.042206549 
    5600    10.104472    1.0494215        81000    24.267426    7.3792801    31.646706    -2.405063 
    5700    10.810223    9.6859902        81000    24.287775    7.8946894    32.182464     1.453069 
    5800    9.7948191    19.534643        81000    24.363235    7.1531413    31.516376    5.5275764 
    5900    9.7245167     5.017781        81000     24.30283    7.1017996    31.404629  -0.36036261 
    6000    10.754736   0.58064854        81000    24.219698     7.854167    32.073865   -1.5743327 
    6100     10.77706     7.064391        81000    24.220126      7.87047    32.090596    1.2777757 
    6200    9.4769551    18.698772        81000    24.244894    6.9210058    31.165899    5.9429478 
    6300    9.1108457    5.6559124        81000    24.306806    6.6536366    30.960442  -0.16693467 
    6400    10.321533   -10.750847        81000    24.309132       7.5378    31.846932   -7.3821763 
    6500    10.887708    11.314719        81000    24.310098    7.9512762    32.261374    2.5227066 
    6600     9.580434    20.991033        81000     24.32423    6.9965762    31.320806    6.9586261 
    6700    8.8144009    5.3790636        81000    24.239623    6.4371434    30.676766   0.38974239 
    6800    9.5995401    2.3720558        81000    24.171277    7.0105294    31.181807  -0.64919934 
    6900    10.198834    5.4228503        81000    24.138297    7.4481925    31.586489   0.59650703 
    7000    10.297252    11.603459        81000    24.120654    7.5200675    31.640722    3.6170623 
    7100    9.7192965    9.2357585        81000    24.106943    7.0979873    31.204931    2.8830971 
    7200    9.0259001   -10.627226        81000    24.173224    6.5916009    30.764825   -6.0545136 
    7300      10.1213   -6.0147448        81000    24.206517    7.3915699    31.598087   -4.2089126 
    7400    10.756256    27.021023        81000    24.159734     7.855277    32.015011      10.8624 
    7500     9.781155    12.394701        81000    24.210477    7.1431625    31.353639    3.7830416 
    7600    9.4981339   -5.6622315        81000    24.258791    6.9364726    31.195264   -4.8323048 
    7700    9.8412672   -4.7959993        81000     24.22235    7.1870623    31.409412   -4.3287769 
    7800    10.172694    8.1371623        81000    24.267252    7.4291031    31.696355    1.3425748 
    7900    10.606088    12.880537        81000     24.23705    7.7456098     31.98266    3.6487351 
    8000    10.112617    14.320158        81000    24.179415    7.3852289    31.564644    4.6394641 
    8100    8.9803275    20.478558        81000    24.201165    6.5583194    30.759484    7.6999589 
    8200    8.8180824    7.8297529        81000    24.196969     6.439832    30.636801    1.7542105 
    8300    10.196366   -24.448938        81000    24.122045    7.4463902    31.568435   -13.364468 
    8400    10.553615    7.2954195        81000    24.185527    7.7072888    31.892816     1.525658 
    8500    9.9853553    18.223015        81000    24.149369    7.2922896    31.441659    6.8961052 
    8600    9.5914368    8.6183355        81000    24.170932    7.0046115    31.175544    2.2694212 
    8700    10.434783  -0.81508402        81000    24.188113    7.6205059    31.808619   -2.4962089 
    8800    10.478044    2.2111743        81000    24.263995    7.6520991    31.916094   -1.3481073 
    8900    9.7737885    14.701237        81000     24.32095    7.1377827    31.458733    4.3840057 
    9000    9.3399919    35.750679        81000    24.228873    6.8209817    31.049854    14.904939 
    9100    9.3399698   -3.9790666        81000    24.180779    6.8209656    31.001745   -3.5822278 
    9200    10.166015   -13.207642        81000    24.147994     7.424225    31.572219   -7.6273741 
    9300    10.144465    10.089118        81000     24.18485    7.4084869    31.593336    2.9988985 
    9400    9.5923722    19.477535        81000    24.176667    7.0052947    31.181962    7.4717617 
    9500    9.6185673     15.47161        81000    24.101482    7.0244249    31.125907    6.0703315 
    9600    10.081417    7.8789775        81000    24.079914    7.3624431    31.442357     2.728767 
    9700    10.100366   -31.525356        81000    24.089906    7.3762818    31.466188   -15.625627 
    9800     10.29934    2.5870133        81000     24.08835     7.521592    31.609942   0.16449438 
    9900    10.028571    24.177167        81000    24.123404    7.3238502    31.447254    10.078019 
   10000    10.027714    7.5695114        81000    24.162333    7.3232244    31.485557    2.1102583 
Loop time of 3.40667 on 1 procs for 10000 steps with 738 atoms

Performance: 507.240 ns/day, 0.047 hours/ns, 2935.416 timesteps/s
98.7% CPU use with 1 MPI tasks x 1 OpenMP threads

MPI task timing breakdown:
Section |  min time  |  avg time  |  max time  |%varavg| %total
---------------------------------------------------------------
Pair    | 0.24505    | 0.24505    | 0.24505    |   0.0 |  7.19
Bond    | 1.8928     | 1.8928     | 1.8928     |   0.0 | 55.56
Neigh   | 0.025614   | 0.025614   | 0.025614   |   0.0 |  0.75
Comm    | 0.055787   | 0.055787   | 0.055787   |   0.0 |  1.64
Output  | 0.003423   | 0.003423   | 0.003423   |   0.0 |  0.10
Modify  | 1.1558     | 1.1558     | 1.1558     |   0.0 | 33.93
Other   |            | 0.02815    |            |       |  0.83

Nlocal:    738 ave 738 max 738 min
Histogram: 1 0 0 0 0 0 0 0 0 0
Nghost:    880 ave 880 max 880 min
Histogram: 1 0 0 0 0 0 0 0 0 0
Neighs:    1545 ave 1545 max 1545 min
Histogram: 1 0 0 0 0 0 0 0 0 0

Total # of neighbors = 1545
Ave neighs/atom = 2.0935
Ave special neighs/atom = 4
Neighbor list builds = 50
Dangerous builds = 0
  unfix label1 						# Erase time evolution scheme
							#
#========= Simulation With Appropiate Potential ========#
							#
  include	potential.ff				# Load the whole FF
# Force Field parameters file containing:

# --------------
# | FOR STYLES |
# --------------
#========================================================
  pair_style      	lj/cut  ${Cutoff}		# <- Comment for charged systems
  pair_style      	lj/cut  12		
#  pair_style      	lj/cut/coul/long ${Cutoff}	# <- Unccoment for charged systems
  bond_style    	harmonic			#
  angle_style   	harmonic			#
  dihedral_style	opls				#
  improper_style	none				#
#========================================================

# ------------------
# | FOR ATOM TYPES |
# ------------------
# type 1 : O (water)
# type 2 : H (water)
# type 3 : CH3 (Terminal Aliphatic UA)
# type 4 : CH2 (Aliphatic UA)
#================================================
  mass  1               15.99940		#
  mass  2               1.007970		#
  mass  3               15.03461		#
  mass  4               14.02660		#
#-----------------------------------------------#
  set type	1 charge	-0.82 		#
  0 settings made for charge
  set type	2 charge	 0.41 		#
  0 settings made for charge
  set type	3 charge	 0.00 		#
  246 settings made for charge
  set type	4 charge	 0.00 		#
  492 settings made for charge
#-----------------------------------------------#
						#
# LJ potential:   i  j   eps      sig		#
#-----------------------------------------------#
  pair_coeff      1  1	0.1554  3.16557		#
  pair_coeff      2  2	0.0000  0.00000		#
  pair_coeff      3  3	0.1750  3.90500		#
  pair_coeff      4  4	0.1180	3.90500		#
						#
  pair_modify tail yes mix arithmetic		#
#================================================

# ------------------
# | FOR BOND TYPES |
# ------------------
# type 1 : O-H (water)
# type 2 : CHx-CHx (Generic Aliphatic UA)
#================================================
  bond_coeff            1	450.0	1       #
  bond_coeff		2	260.0	1.526   #
#================================================

# -------------------
# | FOR ANGLE TYPES |
# -------------------
# type 1 : H-O-H (water)
# type 2 : CHx-CHx-CHx (Generic Aliphatic UA)
#================================================
  angle_coeff           1	55.0	109.47  #
  angle_coeff           2	63.0	112.40  #
#================================================

# ----------------------
# | FOR DIHEDRAL TYPES |
# ----------------------
# type 1 : CHx-CHx-CHx-CHx (Generic Aliphatic UA)
#====================================================
  dihedral_coeff        1	-3.40 1.25 3.10 0.0 #
#====================================================

# ----------------------
# | FOR IMPROPER TYPES |
# ----------------------
# no improper types
#====================================================
#====================================================

							#
  fix label1 all nvt temp $T $T 200			# Time evolution scheme
  fix label1 all nvt temp 298.15 $T 200			
  fix label1 all nvt temp 298.15 298.15 200			
    run 100000						# run during 100000 steps
Neighbor list info ...
  update every 1 steps, delay 10 steps, check yes
  max neighbors/atom: 2000, page size: 100000
  master list distance cutoff = 14
  ghost atom cutoff = 14
  binsize = 7, bins = 5 5 13
  1 neighbor lists, perpetual/occasional/extra = 1 0 0
  (1) pair lj/cut, perpetual
      attributes: half, newton on
      pair build: half/bin/newton
      stencil: half/bin/3d/newton
      bin: standard
Per MPI rank memory allocation (min/avg/max) = 23.63 | 23.63 | 23.63 Mbytes
Step Temp Pzz Volume PotEng KinEng TotEng v_IFT 
   10000    3.3335007    2330.9684        81000    271.10029    7.3232244    278.42352    324.10379 
   10100    271.87976   -941.59129        81000   -258.74581    597.28095    338.53514    18.771706 
   10200    305.21599    557.67716        81000   -261.20921    670.51589    409.30668    153.55887 
   10300    294.24464    967.44243        81000   -186.91727    646.41341    459.49613    9.1051444 
   10400    309.64623    1112.6867        81000   -206.50046    680.24848    473.74802    35.670532 
   10500     305.5806     -73.4973        81000   -226.99238    671.31689    444.32451   -62.052718 
   10600    294.51994    -713.2272        81000   -225.60224    647.01819    421.41595    64.068068 
   10700    281.89382   -1151.5227        81000   -196.72369    619.28042    422.55673    176.93387 
   10800    300.16437   -359.59851        81000   -211.89563    659.41821    447.52258    99.459662 
   10900    312.72028    349.90638        81000   -215.84496    687.00173    471.15678    41.401761 
   11000    300.12915    700.23234        81000    -216.1059    659.34082    443.23492   -131.46709 
   11100    292.02795    818.86055        81000   -242.34019    641.54366    399.20347    102.39322 
   11200    297.87268    33.739748        81000   -242.56905    654.38367    411.81462    -24.17423 
   11300    305.01968   -647.96239        81000   -233.85041    670.08463    436.23421    60.289308 
   11400    298.14069   -1007.7262        81000   -204.14205    654.97246    450.83041   -150.95005 
   11500    292.86906   -355.20816        81000   -190.25072    643.39145    453.14073   -190.89527 
   11600    311.23945   -30.504313        81000   -201.34122    683.74858    482.40736    41.551682 
   11700    319.12419    894.52737        81000   -218.39447     701.0702    482.67574    16.968489 
   11800    294.47581    313.12894        81000   -201.63719    646.92124    445.28404    -67.51539 
   11900    288.03748   -201.74313        81000   -215.86057    632.77716    416.91659    103.87781 
   12000    289.15604   -567.07296        81000   -213.37158    635.23446    421.86289   -91.294769 
   12100    297.84628   -469.82845        81000    -205.9093     654.3257     448.4164    127.22999 
   12200     320.2499    134.59454        81000   -213.39114    703.54324     490.1521    78.559839 
   12300     322.5066    455.70668        81000   -196.75211    708.50089    511.74878    254.35239 
   12400      289.682    57.476475        81000   -187.32391    636.38994    449.06603   -76.508265 
   12500    304.15724      34.5357        81000   -238.56477    668.18997    429.62519   -27.748206 
   12600    293.52171   -410.32273        81000   -233.18707    644.82523    411.63816    45.561164 
   12700    285.99922   -458.22872        81000   -218.80456    628.29938    409.49482   -128.89476 
   12800    298.46888   -162.38516        81000   -214.39112    655.69346    441.30234    148.11392 
   12900    307.96273   -369.89737        81000   -202.02131    676.55008    474.52877   -86.124581 
   13000    308.66112    75.381374        81000   -235.38473    678.08435    442.69962    113.57993 
   13100    295.00671    185.84233        81000   -238.68661    648.08756    409.40095    23.398578 
   13200    302.29365   -16.374306        81000   -270.19053    664.09592     393.9054    59.029506 
   13300    290.47136   -721.08443        81000   -265.79063    638.12404    372.33341   -177.54584 
   13400    288.41219   -50.652683        81000   -271.68127    633.60034    361.91906    161.33123 
   13500    305.83366   -411.40925        81000   -294.23871    671.87282    377.63411   -3.3335887 
   13600    313.37518   -303.76589        81000   -265.23182    688.44046    423.20864   -261.95196 
   13700     301.6763    187.02646        81000   -247.14153    662.73968    415.59815   -81.445614 
   13800    288.43169    266.08142        81000   -242.87959    633.64318    390.76359   -15.118604 
   13900    298.33296    197.14158        81000   -262.92834    655.39485     392.4665    3.6994673 
   14000    318.51748   -526.40896        81000   -244.40157    699.73737    455.33579   -128.33341 
   14100    305.96396   -244.70995        81000   -214.69469    672.15908    457.46439    143.54493 
   14200    303.10793   -160.79263        81000   -243.14287    665.88477     422.7419   -1.3870715 
   14300    303.81443   -30.718587        81000   -264.17919    667.43687    403.25768   -69.513399 
   14400    297.73685    191.36414        81000   -260.47686    654.08529    393.60843    29.936352 
   14500    304.28873   -234.70269        81000   -275.10617    668.47883    393.37265   -178.99971 
   14600    297.78905   -14.930842        81000   -245.47484    654.19995    408.72512   -60.238624 
   14700    316.84703   -43.328826        81000    -274.4805    696.06762    421.58712    142.74476 
   14800    312.05658    232.91848        81000   -281.37067    685.54368    404.17301    270.41236 
   14900    295.59989    107.41078        81000    -285.2131    649.39069     364.1776     121.8061 
   15000    286.91088   -47.254401        81000   -265.74399    630.30218    364.55819    61.566953 
   15100    292.08272    89.732074        81000   -243.69982    641.66396    397.96415    34.834253 
   15200    318.47359   -256.77238        81000   -285.62456    699.64094    414.01638   -29.002515 
   15300    299.97199   -171.90906        81000   -261.18194    658.99558    397.81364    135.90545 
   15400     285.7796   -524.19233        81000    -239.9458    627.81691     387.8711    41.803369 
   15500     294.5028   -110.19434        81000   -263.93437    646.98055    383.04618     76.63052 
   15600    287.61373   -603.82965        81000   -274.92014    631.84625    356.92611   -119.34886 
   15700     288.6523   -50.148477        81000   -280.96479    634.12783    353.16303    65.435553 
   15800    310.40878    81.874331        81000    -285.1011    681.92371     396.8226    40.332192 
   15900    298.28259    125.65434        81000   -262.89477    655.28419    392.38942    87.226159 
   16000    298.84883   -356.84954        81000   -284.91221    656.52814    371.61593   0.82558282 
   16100    301.37185   -422.57652        81000   -304.19217    662.07086    357.87869     80.55353 
   16200    289.22111   -180.96302        81000   -277.19107    635.37741    358.18634   -105.36672 
   16300    301.56771   -26.608943        81000   -301.53717    662.50114    360.96396   -1.2877443 
   16400    300.90891   -142.18221        81000   -319.39036    661.05385    341.66349   -155.96255 
   16500    300.20225    31.209445        81000   -346.34292    659.50141    313.15849    14.628974 
   16600    295.98513   -181.86228        81000   -358.77075      650.237    291.46626    28.061895 
   16700    274.13973    161.42397        81000   -340.92169    602.24579     261.3241    77.111282 
   16800    280.80023   -137.97575        81000   -358.20251    616.87796    258.67545    7.4887049 
   16900    297.85634   -73.765099        81000   -350.29907    654.34779    304.04872   -106.65832 
   17000    304.13076    550.41167        81000   -340.17173    668.13178    327.96005    190.00636 
   17100    302.67085     256.1622        81000   -335.87282    664.92457    329.05175    100.74333 
   17200    290.79494   -21.915126        81000     -351.989     638.8349     286.8459   -51.080437 
   17300    291.39964   -301.31208        81000   -372.44874    640.16334     267.7146   -16.482747 
   17400    295.56864   -166.15992        81000   -362.98935    649.32204    286.33269     16.80321 
   17500    304.07834   -130.12818        81000   -360.18851    668.01664    307.82813    98.337793 
   17600     307.8244   -154.27213        81000   -361.98128    676.24619    314.26491   -76.733449 
   17700    303.93684    -190.2732        81000   -383.69031    667.70577    284.01546   -112.30562 
   17800    273.47839   -10.494974        81000   -355.16551    600.79292    245.62741     78.90738 
   17900    279.50667   -71.944722        81000   -350.75747    614.03619    263.27872   -115.80185 
   18000    301.65133   -489.43479        81000   -363.06261    662.68485    299.62224   -104.92914 
   18100    318.86481    -697.1147        81000   -397.54501     700.5004    302.95539   -187.83266 
   18200    291.83442    217.67223        81000   -372.45066    641.11848    268.66783    84.045811 
   18300    298.34752   -5.4926959        81000   -389.78391    655.42683    265.64292   -134.38076 
   18400    292.26542     202.9988        81000   -376.41252    642.06533    265.65281    76.260481 
   18500    305.37296   -233.89772        81000   -401.48425    670.86072    269.37647   -42.261139 
   18600    297.20115   -146.86152        81000   -406.91403    652.90843    245.99439   -33.685247 
   18700    283.94586    380.38762        81000   -403.46488    623.78844    220.32356    129.89879 
   18800    296.80955   -376.33809        81000   -418.94526    652.04813    233.10287   -35.274031 
   18900    312.45977   -274.48687        81000   -413.82852    686.42945    272.60093    18.434337 
   19000     301.8015    57.717122        81000   -382.87261    663.01475    280.14213    9.6152992 
   19100    297.16366   -154.11221        81000   -394.25061    652.82606    258.57544   -84.680982 
   19200    287.43893   -73.493352        81000   -408.93802    631.46222     222.5242   -43.054677 
   19300    282.18498   -126.69135        81000    -420.9545    619.92004    198.96555   -179.22387 
   19400    289.17158   -86.991871        81000   -409.33633    635.26861    225.93228   -51.944556 
   19500    308.45644   -161.39497        81000   -408.38018    677.63469    269.25451   -192.00017 
   19600    304.34864    26.237057        81000   -395.01642    668.61045    273.59403    16.653365 
   19700    296.43462     116.0499        81000   -403.94224    651.22448    247.28224    143.08535 
   19800     296.5384    188.78182        81000   -430.89181    651.45247    220.56066    25.473059 
   19900    298.64942    88.142608        81000   -430.51911    656.09008    225.57097    57.428007 
   20000    316.94903    294.01904        81000   -414.71882     696.2917    281.57288    205.89715 
   20100    305.95623    -410.2802        81000    -390.9098    672.14208    281.23228    -84.01748 
   20200    302.26649   -177.14695        81000   -415.93966    664.03626     248.0966   -83.870835 
   20300    303.41661   -93.415497        81000   -446.10085    666.56291    220.46205    40.468571 
   20400     294.0048    -326.0539        81000    -429.3204     645.8865     216.5661    -12.78359 
   20500    303.70206   -275.49577        81000   -439.07038       667.19    228.11962   -65.624902 
   20600    304.12798    262.00126        81000   -412.34885    668.12569    255.77684   -4.6973407 
   20700    314.34184    95.689657        81000   -403.24415    690.56408    287.31993    35.916403 
   20800    302.36733    367.84814        81000   -421.00025     664.2578    243.25754    266.06048 
   20900    290.69737   -232.88448        81000   -426.81861    638.62055    211.80194   -12.196973 
   21000    287.99338   -119.49913        81000   -434.10981    632.68027    198.57046   -203.44383 
   21100    303.09295   -126.78215        81000   -455.01008    665.85188     210.8418   -45.073782 
   21200    304.93636   -47.966124        81000   -418.05228    669.90158    251.84931   -10.580897 
   21300    304.69687   -195.61714        81000   -418.40377    669.37545    250.97169   -221.02077 
   21400    296.35567   -59.588992        81000   -437.72045    651.05103    213.33058   -34.283952 
   21500    280.46866    107.68781        81000   -409.60967    616.14955    206.53988   -25.542601 
   21600    307.80488   -165.10405        81000   -450.46996    676.20331    225.73335    135.25131 
   21700    303.43113    171.05481        81000   -434.44711    666.59481     232.1477    163.64007 
   21800    296.59581    -268.2663        81000   -442.41709    651.57858    209.16149   -102.20479 
   21900    288.17006   -398.20231        81000   -469.68474    633.06842    163.38368   -152.62423 
   22000    296.17736   -561.53089        81000   -489.72802    650.65932     160.9313   -111.51733 
   22100    297.27743     159.1618        81000   -465.53313    653.07599    187.54286    54.378533 
   22200    304.89837    288.56106        81000    -470.9952    669.81812    198.82292    64.779156 
   22300    312.76529    274.30856        81000   -491.96871    687.10062    195.13191    11.486812 
   22400    296.50611    493.07325        81000   -471.89728    651.38153    179.48426    304.56819 
   22500    311.85793   -163.11557        81000   -521.10072    685.10727    164.00655   -164.57781 
   22600     293.1907    371.65048        81000   -496.74011    644.09804    147.35793    90.460986 
   22700    291.27752   -42.256973        81000    -484.3721    639.89506    155.52297   -6.7734413 
   22800    306.13882   -256.78959        81000   -455.11807    672.54321    217.42514   -56.586663 
   22900    302.43402   -332.33344        81000   -455.46256    664.40431    208.94174   -40.101264 
   23000    291.25501   -384.47323        81000   -464.95521    639.84561     174.8904   -270.78155 
   23100    303.67786   -280.54991        81000   -506.02231    667.13684    161.11453    20.805441 
   23200    310.33952   -251.70885        81000   -522.19649    681.77155    159.57507   -36.765209 
   23300     281.4762   -273.11974        81000   -492.40285    618.36295    125.96011   -105.77296 
   23400    296.60844   -149.18656        81000   -559.45373    651.60632    92.152593   -118.85199 
   23500    295.09868   -315.96633        81000    -543.4937     648.2896     104.7959    3.3834128 
   23600    301.11761   -280.52573        81000   -526.10719    661.51232    135.40513    37.882431 
   23700    301.18915   -261.42896        81000   -533.32163    661.66949    128.34787   -158.65371 
   23800    276.95214    516.75634        81000   -541.99203    608.42425    66.432222     126.9576 
   23900    286.82433    156.31721        81000    -559.8861    630.11204     70.22594    80.365176 
   24000    294.73751    290.74572        81000   -547.32039    647.49616    100.17577    167.45231 
   24100      306.015    6.3754553        81000   -544.94954    672.27121    127.32167    -209.1003 
   24200    303.83207    45.999181        81000   -535.75582    667.47562    131.71979     10.52407 
   24300    301.83471    70.339803        81000   -544.60138     663.0877    118.48632    14.072017 
   24400     287.2043     155.6486        81000   -570.16242    630.94679    60.784361    102.55362 
   24500    289.63838     170.3823        81000   -566.88312    636.29409    69.410975    137.34333 
   24600    300.82637   -228.50449        81000   -556.01557    660.87252    104.85694    55.682728 
   24700    312.05456     78.12543        81000   -570.48027    685.53924    115.05898    133.15116 
   24800    291.37847   -175.59656        81000   -557.28606    640.11682    82.830762   -64.501998 
   24900    297.80485    65.515864        81000    -591.2023    654.23467    63.032369    131.04068 
   25000    292.50549   -199.91071        81000   -581.46515    642.59274    61.127591    25.368555 
   25100    300.59184   -118.15629        81000   -590.68919    660.35729    69.668095    47.252775 
   25200    304.02327    9.7776565        81000   -589.25403    667.89564    78.641611      42.6502 
   25300    297.76851    181.79491        81000   -612.79549    654.15484    41.359351    262.96703 
   25400    290.86942   -615.51978        81000   -633.65155    638.99853    5.3469859   -161.25603 
   25500    289.85134   -127.22438        81000   -628.28408    636.76195    8.4778786    65.877318 
   25600    303.29885    153.48684        81000   -615.90345    666.30419    50.400741   -119.79084 
   25700    307.48928    133.90111        81000   -612.36438    675.50997    63.145593    89.185793 
   25800    291.99581    71.074393        81000   -589.12377    641.47303    52.349263   -68.290427 
   25900    298.44459     4.384366        81000   -617.89829    655.64008    37.741791    -130.8093 
   26000    288.70427    190.57144        81000   -600.02128    634.24201    34.220725    30.942725 
   26100    288.20245    179.01968        81000   -576.09275    633.13958    57.046827    59.880969 
   26200    305.65974    5.6000553        81000   -581.75352    671.49074    89.737216   -10.285527 
   26300    300.74446    689.97415        81000   -581.52816    660.69256    79.164402    230.01651 
   26400     297.5896   -89.411233        81000   -612.12942     653.7618    41.632379    43.001901 
   26500    282.19566    119.20382        81000   -600.87326    619.94352    19.070261    159.49445 
   26600    308.58715   -315.09767        81000   -640.85031    677.92184    37.071527    23.764817 
   26700     317.2505   -309.92896        81000   -589.81575    696.95399    107.13823   -117.16193 
   26800    309.96517   -422.30029        81000   -602.92374    680.94915    78.025415   -9.1901253 
   26900    299.89865   -422.61121        81000   -621.62596    658.83445    37.208487   -18.046484 
   27000    301.22044   -487.15255        81000   -649.42049    661.73824    12.317743    60.076737 
   27100    301.00011   -518.34794        81000   -658.29306     661.2542    2.9611394   -261.39613 
   27200    295.30003   -33.120229        81000   -667.47126    648.73194   -18.739318    57.938108 
   27300    296.43667   -77.970144        81000   -683.47421    651.22897   -32.245247   -8.9112412 
   27400    293.25852    99.118669        81000   -648.85577    644.24702     -4.60875   -85.292853 
   27500    307.46723    186.80908        81000   -646.25126    675.46155    29.210291    69.674169 
   27600    295.79101    54.767471        81000   -629.89407    649.81055    19.916475    68.845648 
   27700    290.49526    154.52745        81000   -651.99692    638.17654   -13.820375    43.640557 
   27800    298.03995    -22.35611        81000    -682.2587    654.75116   -27.507535   -35.336502 
   27900    298.04123   -5.2601753        81000   -668.34274    654.75397   -13.588776    1.3599018 
   28000    312.13894     318.3627        81000   -629.95865    685.72462    55.765973    65.524325 
   28100    313.59768    151.66956        81000   -647.23032    688.92925    41.698931    41.806351 
   28200    310.08583    448.07446        81000   -694.34865    681.21424   -13.134414    3.8509887 
   28300    292.75547   -103.18936        81000   -681.35682    643.14191   -38.214908   -14.453014 
   28400    285.75022    149.58806        81000   -661.96486    627.75238   -34.212485   -20.729072 
   28500    298.14521    94.604704        81000   -655.96061    654.98239  -0.97822095    2.7574051 
   28600    305.42503    112.06802        81000   -650.76918    670.97511    20.205932    170.43579 
   28700    290.81136   -49.064006        81000   -644.79842    638.87098   -5.9274393    136.91241 
   28800    285.81265   -233.41407        81000     -676.921    627.88951   -49.031485     159.9399 
   28900    298.37439    139.16018        81000    -690.6134    655.48586   -35.127541    146.35763 
   29000    303.75568    -292.7359        81000   -670.16249    667.30779    -2.854698   -154.41691 
   29100     297.2061   -653.96286        81000   -651.09798     652.9193    1.8213132   -247.56251 
   29200    291.00962   -94.648056        81000    -653.7767    639.30652   -14.470176   -64.738739 
   29300    282.26679   -248.81594        81000    -681.2045    620.09978   -61.104717   -46.209216 
   29400    276.52868   -13.512607        81000   -685.69086    607.49396   -78.196897    190.58734 
   29500    283.68044   -240.73632        81000   -662.13493    623.20537   -38.929568    89.978119 
   29600    298.62777    131.27927        81000   -666.44924     656.0425   -10.406739    147.79954 
   29700    304.02324    128.07688        81000   -650.10456    667.89558    17.791022   -8.7142887 
   29800    312.58086    43.958252        81000   -653.10074    686.69545    33.594711    55.904831 
   29900    289.80202    78.241889        81000   -641.10035    636.65359   -4.4467614    29.197751 
   30000    285.62843   -234.11022        81000   -650.04748    627.48482   -22.562665   -303.14887 
   30100    300.97594    336.41209        81000   -673.38779    661.20111   -12.186688    53.466383 
   30200    312.91135    90.487925        81000   -691.20735    687.42149   -3.7858604   -80.412393 
   30300    308.95581   -116.83841        81000   -690.97159    678.73173   -12.239864    37.452461 
   30400    283.50641    315.55278        81000   -686.64137    622.82305   -63.818322    290.71454 
   30500    286.70031    35.611416        81000   -687.85394    629.83959   -58.014352    9.8466818 
   30600    292.14014    383.47317        81000   -661.64606    641.79012   -19.855936    269.47255 
   30700    310.42072    -712.3619        81000   -683.20629    681.94994   -1.2563451   -181.73468 
   30800    300.80499   -82.158715        81000   -663.83219    660.82555   -3.0066416    97.702924 
   30900    298.88753   -196.51574        81000   -675.81278    656.61317   -19.199613    44.270205 
   31000    279.83114   -666.64776        81000   -675.74033    614.74899   -60.991336   -278.20607 
   31100    285.44511    184.34319        81000   -691.55781    627.08209   -64.475723    170.69488 
   31200    294.91555    100.16072        81000    -657.2258    647.88729   -9.3385148    48.005485 
   31300    300.17284    381.27738        81000   -661.15875     659.4368   -1.7219533    305.63004 
   31400    306.05195   -141.67843        81000   -693.27395    672.35238   -20.921573    -109.0047 
   31500    306.11979   -252.99827        81000   -728.98459     672.5014   -56.483189   -20.007053 
   31600    297.11857   -251.62804        81000   -722.59467    652.72702   -69.867654    40.120903 
   31700    284.53095   -89.545051        81000   -675.82075    625.07381   -50.746944    -66.29099 
   31800    292.30169   -123.95667        81000   -677.29312    642.14503   -35.148092    50.674713 
   31900    292.70011    90.814134        81000   -686.85275    643.02029   -43.832464    26.755431 
   32000     295.2661    121.85684        81000   -712.13743     648.6574   -63.480022   -33.142401 
   32100    291.71501     79.09644        81000   -732.92452    640.85617    -92.06835   -18.288958 
   32200    285.62737    19.138925        81000   -734.32457    627.48249   -106.84208    34.665963 
   32300    293.18148    187.26284        81000   -707.75911     644.0778   -63.681318   -115.32697 
   32400    306.34102    535.17311        81000   -703.96963    672.98742   -30.982212    165.18221 
   32500    300.07061    -112.1446        81000   -691.98223    659.21223   -32.770005   -34.862984 
   32600      296.608       48.768        81000   -729.28724    651.60537   -77.681877     163.0824 
   32700    290.95639   -137.65809        81000   -727.94818    639.18958   -88.758602   -26.055348 
   32800    281.35808   -172.50706        81000   -693.80748    618.10346    -75.70402    -120.1969 
   32900    299.96097   -23.688165        81000   -697.58812    658.97137   -38.616748    149.76535 
   33000    302.75072   -3.4720885        81000   -688.71399    665.10003   -23.613962    6.0510278 
   33100    305.73743    417.45825        81000   -694.08099    671.66143   -22.419563    218.53247 
   33200    286.35308   -36.220684        81000   -661.68646    629.07676   -32.609696     27.91771 
   33300    289.13854   -188.30727        81000   -662.84379    635.19602   -27.647773    26.737594 
   33400    308.01481   -9.7772437        81000   -661.40568     676.6645    15.258819    151.42997 
   33500    305.23611   -474.88789        81000   -640.32153     670.5601    30.238568   -190.17851 
   33600    304.06604   -387.51473        81000   -668.20197    667.98962  -0.21235478    104.78358 
   33700    290.08533   -629.06708        81000   -665.90181    637.27598   -28.625831   -142.08007 
   33800    298.60691    283.89785        81000   -674.59712    655.99668   -18.600442    268.48848 
   33900    303.86039    396.49844        81000   -667.69634    667.53782   -0.1585113     310.1085 
   34000    298.87411   -222.11813        81000   -645.35954    656.58368    11.224145    72.556253 
   34100    308.45928   -227.18505        81000    -657.7876    677.64092    19.853325   -42.993679 
   34200    301.26736    92.847231        81000   -643.96073    661.84131    17.880576   -25.817575 
   34300    288.99643    163.14699        81000    -635.6419    634.88383  -0.75806288    70.202024 
   34400    293.19423   -73.576825        81000   -660.00223     644.1058   -15.896431    6.3789026 
   34500    295.36624   -424.71823        81000   -669.38826     648.8774   -20.510853   -181.35221 
   34600    303.92594   -429.53888        81000   -677.78867    667.68183    -10.10684   -188.76883 
   34700    291.98364   -251.11112        81000    -644.3736    641.44631     -2.92729   -98.056905 
   34800    295.50147   -376.16471        81000   -659.14039    649.17447   -9.9659178    24.865154 
   34900    302.25158    155.70613        81000   -705.77302     664.0035   -41.769526    89.016516 
   35000    292.86534    218.56742        81000   -712.11867    643.38327   -68.735406    53.977087 
   35100    284.61266    110.10391        81000   -682.62394    625.25331   -57.370631    12.006244 
   35200    303.36965    345.52908        81000   -669.65963    666.45973   -3.1999045    231.30237 
   35300    305.52795    326.60852        81000   -673.51158    671.20123   -2.3103532    28.974074 
   35400    297.65403    198.90497        81000   -690.77832    653.90335   -36.874974    204.08899 
   35500    288.89454   -214.04655        81000   -695.68362       634.66   -61.023615   -32.500142 
   35600    295.31473   -85.032729        81000   -700.08756    648.76422   -51.323335    83.041682 
   35700    314.54129    49.553565        81000   -711.46685    691.00224   -20.464614   -125.64592 
   35800    310.19922    264.61175        81000   -663.67682    681.46332    17.786497    64.438847 
   35900    318.18455   -116.43608        81000    -671.0685    699.00596    27.937467   -64.131305 
   36000    298.08996   -31.032567        81000   -686.25912    654.86102   -31.398106   -1.8780094 
   36100    307.19563    139.82793        81000   -730.03709    674.86488   -55.172209     114.2807 
   36200    289.48961   -333.21675        81000   -705.70277    635.96728   -69.735496   -170.33798 
   36300    295.55607   -127.39771        81000   -704.19122    649.29442   -54.896806   -22.794523 
   36400    311.54236    37.327977        81000   -699.03475    684.41402   -14.620734    160.08922 
   36500    302.56219   -147.83125        81000    -681.3476    664.68587   -16.661728   -33.607158 
   36600    302.31199   -162.35709        81000   -712.00909    664.13622   -47.872874   -1.9711037 
   36700    279.79405    55.179481        81000   -671.84831    614.66752   -57.180795    243.53924 
   36800    294.53714    177.58419        81000   -692.66359    647.05597   -45.607613    196.04067 
   36900    299.71828   -538.14185        81000   -682.84337     658.4382   -24.405168   -277.56309 
   37000    307.92126   -159.39986        81000   -687.92102    676.45898   -11.462032     235.9331 
   37100    298.75184   -360.45274        81000   -711.99731    656.31508   -55.682222    71.764747 
   37200    291.93814    91.627649        81000   -723.64043    641.34634   -82.294093    213.97439 
   37300    300.18877    111.77053        81000   -718.78843     659.4718    -59.31663   -45.734544 
   37400    305.30498   -28.075269        81000   -714.19957    670.71139   -43.488184    50.115521 
   37500    294.16032    161.63498        81000   -704.41375    646.22817   -58.185579    69.291536 
   37600    282.91007   -188.89654        81000   -721.22915    621.51297   -99.716174   -146.27596 
   37700    286.53859    62.373642        81000   -761.95015    629.48431   -132.46584    219.34328 
   37800    297.92753   -206.10825        81000   -756.40946    654.50418   -101.90528   -47.282525 
   37900    289.19999   -208.63714        81000   -711.18553    635.33102   -75.854517    -37.82232 
   38000    285.41981   -307.08887        81000   -678.53765     627.0265    -51.51115   -142.26541 
   38100    307.30776   -42.060741        81000   -716.36013     675.1112   -41.248929   -26.355003 
   38200    288.88664    136.84552        81000   -690.01323    634.64265   -55.370581    53.139034 
   38300    294.52466     84.88426        81000   -731.73131    647.02856   -84.702756   -91.236603 
   38400    281.35072    131.03816        81000   -717.00058     618.0873   -98.913282     28.57757 
   38500    293.12109   -20.803787        81000   -696.68867    643.94512   -52.743551   -120.70378 
   38600    315.30409    317.99591        81000   -723.04157      692.678   -30.363574    92.066683 
   38700    299.47508   -349.48698        81000   -702.68754    657.90392   -44.783614   -62.516104 
   38800    294.01246   -271.54088        81000   -720.28027    645.90332    -74.37695    29.584279 
   38900    288.73202   -271.20712        81000   -729.42338    634.30296   -95.120414   -124.06409 
   39000    294.10247    170.80793        81000   -729.45423    646.10107   -83.353162    146.10099 
   39100    304.13103   -446.31298        81000   -700.14194    668.13239   -32.009554   -178.78213 
   39200    325.70243    17.751075        81000   -738.01843    715.52166    -22.49677    53.894395 
   39300    298.29389    380.73978        81000    -720.8971    655.30902   -65.588077    58.370448 
   39400    289.68763    210.86163        81000   -716.22936    636.40229   -79.827072    101.51201 
   39500    288.30715    6.6985759        81000   -692.98109    633.36959   -59.611503    89.338023 
   39600    305.57769   -214.30579        81000   -694.87014     671.3105   -23.559646   -5.5859441 
   39700    312.24578   -139.68866        81000   -708.89865    685.95933   -22.939323   -8.6484041 
   39800    304.72556   -210.75312        81000    -714.3582    669.43849   -44.919711   -49.768593 
   39900    299.84846   -464.71678        81000   -716.04164    658.72418   -57.317459     28.54624 
   40000    293.42964   -526.62449        81000   -691.13815    644.62296   -46.515191   -60.112564 
   40100    316.35487    120.20324        81000   -688.90222    694.98642    6.0841942    98.926106 
   40200    297.22565   -356.93058        81000    -653.3871    652.96225  -0.42484759   -84.663145 
   40300    296.44641   -522.88888        81000   -681.00364    651.25038   -29.753261   -113.98421 
   40400    286.46175   -679.13077        81000   -666.59465    629.31551   -37.279145   -167.20368 
   40500    292.49345    191.98198        81000   -673.41189    642.56629   -30.845593    27.663914 
   40600    304.60703    304.73982        81000   -683.55108    669.17809   -14.372991    70.079144 
   40700    301.18139   -25.915902        81000   -642.92048    661.65244    18.731954   -100.21647 
   40800    317.50763    108.87002        81000   -647.22384    697.51887     50.29503    77.782748 
   40900    315.80077    64.737932        81000    -690.2397    693.76914    3.5294428   -63.239267 
   41000    296.64694    -26.75251        81000   -675.39101    651.69091   -23.700103    135.11006 
   41100    297.87148   -757.54563        81000   -670.22916    654.38105   -15.848108   -246.97443 
   41200    303.65213   -168.86266        81000    -653.3569    667.08031    13.723413   -156.55105 
   41300    309.56237     46.09453        81000   -638.64824    680.06425    41.416019    130.11598 
   41400    296.55259   -87.159607        81000   -628.64248    651.48364    22.841158   -32.947035 
   41500    282.01038   -254.65854        81000   -658.56736    619.53647   -39.030887    62.396642 
   41600    290.58499   -377.70427        81000    -680.8459    638.37367   -42.472223    61.187566 
   41700    299.04249   -22.113327        81000    -674.6035    656.95359   -17.649905   -6.6147139 
   41800    301.41316   -224.82937        81000   -656.29999    662.16161    5.8616178   -58.950591 
   41900    298.82189   -124.06071        81000   -659.24927    656.46896    -2.780307     50.77648 
   42000    294.48935    291.13393        81000   -702.49746      646.951   -55.546469    223.65344 
   42100    293.12902    439.20338        81000   -708.72071    643.96253   -64.758176    100.26533 
   42200     295.8612   -179.22137        81000   -706.78905    649.96474   -56.824309    44.651928 
   42300    293.35426    21.301847        81000   -697.72294    644.45737   -53.265572    -80.12212 
   42400    297.94951    146.88212        81000   -696.71432    654.55246   -42.161858    204.83164 
   42500    297.48337   -270.47729        81000   -685.79979    653.52844   -32.271357     -115.859 
   42600    304.72653    293.01761        81000   -685.63678    669.44061   -16.196169    173.69834 
   42700    311.98458    228.37091        81000   -700.20502    685.38551   -14.819513     133.1817 
   42800    299.98576   -182.82171        81000   -719.16331    659.02582   -60.137496   -119.86355 
   42900    289.58682    142.73653        81000   -712.76855    636.18084   -76.587707    18.660249 
   43000    301.09837    213.10156        81000   -719.92442    661.47006   -58.454364    98.719157 
   43100    303.47307    -115.3985        81000   -693.80178    666.68694   -27.114837   -132.56681 
   43200    306.70571   -78.008249        81000   -696.30515    673.78859   -22.516558   -86.261547 
   43300    288.09769    61.566272        81000   -669.03585    632.90944    -36.12641    53.559553 
   43400    295.91673     350.9039        81000   -702.40475    650.08674   -52.318007    185.86591 
   43500    293.32222   -22.335765        81000    -720.3438    644.38697   -75.956837   -16.147161 
   43600    277.80371    235.60171        81000   -717.94464    610.29503   -107.64961    52.072025 
   43700     276.9917    290.21259        81000   -744.11549    608.51116   -135.60433    63.922335 
   43800    306.83248    86.031175        81000   -770.82947    674.06709    -96.76238     96.70361 
   43900    302.91387      213.635        81000   -723.02581    665.45846   -57.567343    108.30374 
   44000    312.21677    199.26919        81000   -727.12233    685.89561   -41.226718    138.66119 
   44100    311.16334     373.8983        81000   -745.72591    683.58136   -62.144554    188.57645 
   44200    298.49102    132.13747        81000   -753.15587     655.7421   -97.413772    8.5419479 
   44300    287.74913   -249.53999        81000   -743.26034    632.14369   -111.11665    2.2653513 
   44400    303.91735    15.865301        81000   -737.13297    667.66295   -69.470021    85.703719 
   44500    318.48258    97.434804        81000   -729.45685     699.6607   -29.796149    33.301175 
   44600    303.04197    214.15357        81000   -713.11423    665.73987   -47.374366   -49.938942 
   44700    292.15901    280.28341        81000   -721.11488    641.83157   -79.283313    189.16859 
   44800    284.82773   -288.88937        81000   -715.06088     625.7258   -89.335083   -112.05893 
   44900     301.7846   -177.00555        81000   -719.64273    662.97761   -56.665117   -17.929078 
   45000    311.29498   -37.002523        81000   -697.53982    683.87056   -13.669256    -109.7768 
   45100    304.34505    43.725341        81000    -706.4048    668.60256    -37.80224    13.055113 
   45200     294.6072    106.98358        81000   -713.21035    647.20989   -66.000464    -22.53395 
   45300    294.13647    31.007112        81000   -717.36067    646.17577     -71.1849    48.024711 
   45400    298.23509    322.13391        81000   -715.41967    655.17986   -60.239817    115.27273 
   45500     308.7608    534.67551        81000   -685.18057    678.30333   -6.8772404    143.14091 
   45600    303.64885   -410.66643        81000   -680.19217    667.07311   -13.119065   -187.05876 
   45700    311.37346    257.00508        81000   -743.97673    684.04297   -59.933759    85.788805 
   45800     292.0538   -155.71928        81000   -715.36146    641.60044   -73.761014   -1.1866934 
   45900    299.35459   -382.83699        81000   -728.10499    657.63924   -70.465752   -72.546023 
   46000      297.653    -94.80226        81000   -724.73641    653.90109   -70.835328   -50.443284 
   46100    306.46007   -24.631142        81000   -739.18651    673.24896   -65.937543    86.643813 
   46200    295.15149    64.900897        81000   -732.62527    648.40562   -84.219649    132.40935 
   46300     289.5184   -196.10259        81000   -751.32765    636.03052   -115.29713    116.71431 
   46400    302.36406    -59.96474        81000   -782.42736     664.2506   -118.17677    49.510963 
   46500    297.65396    199.55177        81000   -734.11337    653.90319   -80.210177    120.58194 
   46600    311.96708    94.635348        81000   -734.41396    685.34706   -49.066905   -38.392417 
   46700    302.45699    17.577262        81000   -735.96425    664.45475   -71.509501   -6.2860138 
   46800    309.74701    164.32679        81000   -780.50134    680.46988   -100.03146    9.5089718 
   46900    289.01064   -85.053062        81000   -742.38614    634.91504    -107.4711   -43.652118 
   47000    299.55972    81.914472        81000   -752.79681    658.08988    -94.70693    32.596808 
   47100    293.09514   -90.431743        81000   -727.43938    643.88811   -83.551271   -37.567459 
   47200    306.76179   -17.783897        81000    -746.6018    673.91178   -72.690027   -124.37957 
   47300    303.47654   -26.722931        81000   -752.65966    666.69456   -85.965106     8.739111 
   47400     288.1631   -54.130682        81000    -747.3541    633.05312   -114.30098    67.612994 
   47500    287.14179   -512.55973        81000    -735.1072    630.80946   -104.29774   -214.01588 
   47600    301.78914    154.36055        81000   -718.43736    662.98759   -55.449771    140.19353 
   47700    316.42783   -107.66279        81000   -733.07755    695.14671   -37.930845   -6.9328833 
   47800     294.4152   -468.73463        81000    -695.4927    646.78809   -48.704606   -113.27912 
   47900    298.68677    106.90422        81000   -726.25656    656.17211   -70.084447    99.007616 
   48000    286.00864    -335.6886        81000   -726.40231    628.32008   -98.082235   -149.84437 
   48100    276.38848   -405.97574        81000   -734.95184    607.18597   -127.76587   -189.43247 
   48200    287.76517   -602.13655        81000   -760.47461    632.17894   -128.29567    -161.8777 
   48300    302.54226   -189.76563        81000   -744.79992    664.64209   -80.157834   -12.159446 
   48400    294.18637   -84.429855        81000    -706.3493    646.28538   -60.063923    38.802394 
   48500    303.63024   -299.92981        81000   -713.03953    667.03223   -46.007296   -277.80036 
   48600    297.26582   -39.473576        81000   -708.84307    653.05049   -55.792581   -86.610005 
   48700    283.80081    258.28512        81000   -724.39008     623.4698   -100.92029    148.41566 
   48800    283.53164    139.60024        81000   -738.36304    622.87846   -115.48458    -35.92612 
   48900    287.55621    157.54002        81000   -718.52519    631.71987   -86.805321    -39.47248 
   49000    304.42889      135.395        81000   -724.16593    668.78674   -55.379196   -56.136245 
   49100    297.57136   -25.071263        81000    -713.6208    653.72173   -59.899068   -163.46849 
   49200    304.21722     492.5344        81000   -740.86542    668.32174   -72.543681    123.09725 
   49300    299.51197   -187.69889        81000   -749.90949    657.98497   -91.924519   -256.34132 
   49400     299.8357    436.93691        81000   -781.70126    658.69616    -123.0051    119.26407 
   49500    284.31448   -455.51013        81000   -761.12121    624.59825   -136.52295   -201.95987 
   49600    301.98427   -43.314592        81000   -755.04706    663.41625   -91.630803    110.96178 
   49700    313.06181    72.252809        81000   -758.08259    687.75204   -70.330554    132.49888 
   49800    297.10479    -535.8256        81000   -731.57554    652.69673   -78.878805   -261.30941 
   49900    285.19508   -195.00666        81000   -722.37394    626.53281   -95.841132   -17.818868 
   50000     282.6441   -419.04417        81000   -719.83219    620.92867    -98.90352   -180.22477 
   50100    312.75923    247.57062        81000    -745.7429    687.08731   -58.655592    183.67385 
   50200    307.16701    130.30026        81000   -725.04071    674.80199    -50.23872    34.540147 
   50300    299.45282    108.17865        81000   -736.23666    657.85503   -78.381626     32.58225 
   50400    293.06977   -251.99511        81000   -758.18125    643.83238   -114.34887   -183.42895 
   50500    301.32082   -52.128314        81000   -781.77548    661.95876   -119.81672   -147.49478 
   50600    306.94359    62.433971        81000   -725.94961    674.31118   -51.638428   -144.42678 
   50700    305.49032    320.65164        81000   -722.55864    671.11855   -51.440093    72.706931 
   50800      289.249   -5.9393431        81000    -725.3884    635.43868   -89.949711   -168.44007 
   50900    288.45272    88.429074        81000   -735.84384    633.68938   -102.15446    13.127582 
   51000    308.38097   -131.29793        81000    -753.5718    677.46889   -76.102911   -77.778583 
   51100    305.46593     16.97491        81000   -717.91959    671.06496   -46.854627    39.504566 
   51200    309.39941    80.235995        81000   -718.01595    679.70626   -38.309684    49.908618 
   51300    301.55345   -7.8517074        81000   -747.05507    662.46982   -84.585249    121.49422 
   51400     284.9846   -120.90172        81000   -737.42929    626.07042   -111.35887    47.697051 
   51500    290.13303   -187.05002        81000   -742.61705    637.38079   -105.23626   -39.890368 
   51600    311.28682     295.0084        81000   -756.61373    683.85264   -72.761095    165.30948 
   51700    316.00776   -86.687203        81000   -748.57347    694.22386   -54.349612   -79.636487 
   51800    297.00429   -16.800504        81000   -751.26416    652.47596   -98.788194   -47.583591 
   51900    291.44923    628.01423        81000   -771.00177    640.27227   -130.72949    252.97858 
   52000    300.57139   -146.30002        81000   -781.08992    660.31236   -120.77756   -4.6409209 
   52100    292.90099    86.032168        81000   -739.58751    643.46159   -96.125919    60.295692 
   52200    306.83358    211.86767        81000   -740.70235     674.0695   -66.632845    87.359967 
   52300    304.83205   -244.28054        81000   -731.01181    669.67242   -61.339386   -121.68949 
   52400    294.04292   -93.060803        81000   -763.34705    645.97024    -117.3768   -67.145079 
   52500    289.66004   -263.89018        81000   -769.45631    636.34169   -133.11462   -181.20842 
   52600    291.97116   -271.62805        81000   -742.27628     641.4189   -100.85738   -195.05129 
   52700    298.11726    146.69219        81000   -723.90352    654.92099   -68.982527    7.5347543 
   52800    299.84313    396.49287        81000   -734.51038    658.71248   -75.797907    287.77803 
   52900    302.28054    -246.9711        81000   -767.86523    664.06713    -103.7981      -71.937 
   53000    304.00517   -114.23007        81000   -792.07927    667.85588   -124.22338   -125.90202 
   53100    289.75856    23.861317        81000   -759.41308    636.55813   -122.85495   -31.032788 
   53200    306.69231   -78.453701        81000   -786.19805    673.75916    -112.4389    76.699286 
   53300    292.41937   -82.075028        81000   -757.15974    642.40355   -114.75619   -66.874203 
   53400    285.60432    17.231642        81000   -746.42572    627.43186   -118.99386    32.973544 
   53500    290.51077   -30.147976        81000   -747.68483    638.21062   -109.47421    192.08616 
   53600    306.99214   -534.40815        81000   -763.47061    674.41784   -89.052768   -156.07626 
   53700    318.15514    246.32427        81000    -778.6554    698.94135   -79.714058    266.58161 
   53800    291.27157   -281.31254        81000   -760.51051    639.88199   -120.62851   -217.18178 
   53900    287.63955   -38.963392        81000   -770.62751    631.90297   -138.72454    40.278508 
   54000    294.30106   -275.83541        81000   -771.00961    646.53735   -124.47225     -253.328 
   54100    291.99223    344.55429        81000   -749.64307    641.46518   -108.17789   -9.8511322 
   54200    301.31748    574.47536        81000   -765.15239    661.95141   -103.20098    211.85305 
   54300    302.65217    235.06152        81000   -778.51967    664.88354   -113.63612   -63.388302 
   54400    306.94214    49.465354        81000   -784.97474      674.308   -110.66674   -18.029941 
   54500     302.3102   -3.3277312        81000   -744.96864    664.13228   -80.836355    38.966276 
   54600    308.58322   -30.594802        81000   -723.25735    677.91322    -45.34413    -2.128151 
   54700    297.35625   -688.85409        81000   -734.38715    653.24916   -81.137992   -263.09308 
   54800    296.80745      -526.69        81000   -749.98041    652.04353   -97.936882    32.280833 
   54900    297.55313   -187.37342        81000   -751.03731    653.68169    -97.35562    59.374616 
   55000    296.50601    -42.96247        81000   -745.24441     651.3813    -93.86311    121.48766 
   55100    304.25578   -427.63588        81000    -752.0654    668.40645   -83.658956    -67.50771 
   55200    322.08546    145.56825        81000   -759.74935     707.5757   -52.173653    126.33104 
   55300    310.49665    136.95547        81000   -729.64093    682.11675   -47.524177    53.933383 
   55400    300.21428   -82.651953        81000   -755.77512    659.52785   -96.247272    54.768308 
   55500    291.13119   -361.35745        81000   -760.00601     639.5736   -120.43241   -79.333228 
   55600    301.67886   -15.403181        81000   -768.27355    662.74531   -105.52824    75.624061 
   55700    307.65711    196.30681        81000   -758.09352    675.87868   -82.214843   -39.256443 
   55800    301.83841   -454.26659        81000   -723.55142    663.09583   -60.455588   -252.94352 
   55900     308.7923   -192.62234        81000   -730.99056    678.37253   -52.618035   -290.13175 
   56000    292.83589   -342.09624        81000   -737.72303    643.31857   -94.404457   -207.61694 
   56100    286.09506   -419.67599        81000   -751.83704    628.50993   -123.32711    -163.2299 
   56200    292.86521    122.27993        81000   -759.52625    643.38299   -116.14326     87.07312 
   56300    299.76262    337.92429        81000   -739.80396    658.53561   -81.268356    256.63641 
   56400    314.64605    31.078352        81000   -745.90171    691.23237   -54.669339    36.130773 
   56500    300.12181    35.611561        81000    -741.6721     659.3247   -82.347397    26.879866 
   56600    285.68255   -149.98389        81000   -764.37505    627.60372   -136.77133   -57.637154 
   56700    287.34443    272.24803        81000   -761.77305    631.25462   -130.51843    189.93396 
   56800    307.74658   -28.003748        81000   -775.29643    676.07524   -99.221185   -65.122096 
   56900    307.42936    101.83064        81000    -757.9597    675.37834   -82.581366    4.6888694 
   57000    306.09708    131.35489        81000   -754.19185    672.45152   -81.740327    52.167631 
   57100     289.6419   -316.44893        81000   -765.26216    636.30185   -128.96031   -170.22187 
   57200    287.40048   -88.390882        81000   -777.06304    631.37777   -145.68528     203.4165 
   57300    288.78164   -222.92928        81000   -750.94393    634.41197   -116.53197     65.97183 
   57400    288.48929   -40.665759        81000   -731.30445    633.76972   -97.534728    279.68357 
   57500    290.09181   -493.55048        81000    -737.8632    637.29022   -100.57298    -23.88606 
   57600    287.40308   -495.87344        81000   -738.91792    631.38346   -107.53446    42.701019 
   57700    297.89181   -495.92279        81000   -770.57683     654.4257   -116.15112   -118.91419 
   57800     293.4555   -128.69992        81000   -795.82572    644.67977   -151.14596    34.448805 
   57900    282.15624    209.40205        81000   -788.66705    619.85691   -168.81014    164.50615 
   58000    299.23821     609.6395        81000   -781.42322    657.38357   -124.03965    178.08531 
   58100    298.85081    557.67505        81000   -760.39609    656.53249    -103.8636      -19.071 
   58200    293.77872   -159.98581        81000   -746.68982    645.38984   -101.29998   -197.70332 
   58300    294.60748    204.69845        81000   -742.30628     647.2105   -95.095776    31.313943 
   58400    316.98644    635.38151        81000   -758.19049    696.37388   -61.816612    137.78322 
   58500    312.77231    489.93307        81000   -745.35769    687.11603   -58.241653    151.86004 
   58600    297.38317    25.632349        81000   -765.58733    653.30829   -112.27904   0.51504013 
   58700    292.21016   -136.96937        81000   -771.95957    641.94394   -130.01563   -132.20334 
   58800    295.93383    207.50111        81000    -777.3379    650.12431   -127.21359    16.467571 
   58900    304.08091    60.635784        81000   -767.55137    668.02227   -99.529104    82.128627 
   59000    306.09214   -233.02256        81000    -743.8166    672.44066   -71.375943    68.093513 
   59100    314.55809    68.184696        81000   -771.64961    691.03914   -80.610468    75.628922 
   59200    298.86702   -293.94659        81000   -785.66781     656.5681   -129.09971   -3.4224492 
   59300    293.78705    309.77726        81000    -780.2842    645.40813   -134.87607    236.45657 
   59400    295.24984   -99.243864        81000    -758.0656    648.62168   -109.44392   -72.010362 
   59500     313.9949    169.73427        81000   -765.64014    689.80191   -75.838232    106.24517 
   59600    304.02633    528.07275        81000   -750.98385    667.90238   -83.081477    206.19158 
   59700    304.42308    246.12263        81000   -766.04976    668.77398   -97.275777    -42.98314 
   59800    306.42475   -144.35279        81000   -789.68232    673.17137   -116.51095    -99.38039 
   59900     304.1293    144.40489        81000   -803.22726    668.12859   -135.09867    114.79489 
   60000    302.38243   -126.64658        81000   -799.81177    664.29096   -135.52081   -158.56644 
   60100     301.4236    108.35653        81000   -761.87379    662.18456   -99.689236    139.91854 
   60200    308.55382   -59.559101        81000   -743.65912    677.84861   -65.810505    138.34686 
   60300    303.30874   -343.58771        81000   -760.64294    666.32594   -94.317002   -132.14442 
   60400    295.17309   -411.13267        81000    -772.3541    648.45307   -123.90103   -82.997094 
   60500    283.30325   -161.01591        81000   -750.09632    622.37673   -127.71959   -57.732908 
   60600    292.08782    387.86364        81000    -743.2113    641.67518   -101.53612    409.39092 
   60700    307.78669    317.34978        81000   -761.05268    676.16335   -84.889327    120.22102 
   60800    295.76141   -38.746326        81000   -742.16118    649.74553   -92.415649   -11.064787 
   60900    304.62639    148.27876        81000    -769.6673    669.22063   -100.44667   -25.208506 
   61000    298.75791    133.79433        81000   -768.54354     656.3284   -112.21514    140.32472 
   61100    300.78875   -183.48396        81000   -762.49662    660.78987   -101.70675   -14.993776 
   61200    294.99062    376.54442        81000   -711.07503    648.05222   -63.022819    219.27706 
   61300    298.48355   -236.53884        81000   -724.40401    655.72568   -68.678324   -65.730589 
   61400    287.86955   -29.721814        81000   -750.10873    632.40824   -117.70048    -23.29765 
   61500    296.05628   -111.09503        81000    -790.7578    650.39332   -140.36448   -105.04052 
   61600    296.21065    121.24827        81000   -799.81127    650.73244   -149.07883    40.110282 
   61700    294.97522   -480.25614        81000   -797.31144    648.01838   -149.29306   -197.02195 
   61800    297.80584    178.73856        81000    -782.4079    654.23685   -128.17105   -84.072936 
   61900    311.85204    570.15423        81000   -783.87821    685.09433    -98.78388    169.27195 
   62000    305.96908    327.25672        81000   -781.03132    672.17033     -108.861    219.25895 
   62100    292.55206    117.53148        81000   -798.39479    642.69505   -155.69974    165.53514 
   62200    283.80863   -203.92097        81000   -785.90553    623.48697   -162.41856    -176.4942 
   62300     293.5513   -340.95703        81000   -791.29221    644.89024   -146.40197    39.089302 
   62400    294.11208   -429.65298        81000   -781.19252    646.12217   -135.07035   -86.395012 
   62500    307.30428   -232.00599        81000   -799.04911    675.10355   -123.94555    25.207369 
   62600     306.6487    -546.7324        81000   -773.54189    673.66333   -99.878551   -227.15393 
   62700     313.4823    41.388386        81000   -771.83384     688.6758   -83.158041    122.47029 
   62800    307.17415   -188.29451        81000   -799.30453    674.81767   -124.48686   -76.234165 
   62900    297.15428    155.94029        81000   -807.98754    652.80545   -155.18209   -32.299154 
   63000    300.23262    -31.81476        81000    -808.1589    659.56814   -148.59076    167.32333 
   63100    312.79872   -361.39106        81000    -814.5038    687.17405   -127.32975   -139.41156 
   63200    310.91698   -161.94017        81000    -771.8809    683.04015   -88.840741    7.5418628 
   63300    312.59799   -271.82986        81000   -756.32008    686.73309   -69.586986   -117.28162 
   63400    313.76802   -224.07009        81000   -820.89221    689.30348   -131.58873   -35.546754 
   63500    289.79053    -67.62291        81000   -786.84351    636.62836   -150.21516   -169.76244 
   63600    289.87256    98.722297        81000   -778.51541    636.80857   -141.70684    150.44381 
   63700    311.49879   -117.87487        81000   -799.77336    684.31829   -115.45507   -38.030173 
   63800    296.57687    142.89408        81000   -758.67373    651.53697   -107.13676    75.180977 
   63900    305.19517   -362.75395        81000   -779.12827    670.47014   -108.65812   -245.83668 
   64000    289.67096    250.04497        81000   -768.91481    636.36568   -132.54912    86.247801 
   64100    286.93111   -70.808392        81000   -789.67568    630.34663   -159.32906   -33.957425 
   64200    281.56487    79.910746        81000   -765.95203    618.55775   -147.39428    65.597569 
   64300    301.64549   -20.063706        81000   -760.99877    662.67201   -98.326756   -118.94965 
   64400    302.91202   -160.73448        81000   -756.18692    665.45439   -90.732527   -9.3864584 
   64500    289.37768   -252.29602        81000   -739.96371    635.72138   -104.24232   -150.24575 
   64600    309.74549   -514.93677        81000   -792.70948    680.46655   -112.24293   -217.03542 
   64700    286.08807   -537.33634        81000     -786.118    628.49459   -157.62342   -43.182205 
   64800    277.94453   -69.344726        81000   -776.29147     610.6044   -165.68707    154.49839 
   64900    292.84055    -252.6008        81000   -771.48185    643.32882   -128.15303    66.593024 
   65000    307.40177   -270.51277        81000   -777.35726    675.31772   -102.03953    46.560198 
   65100    300.69998    -70.43317        81000   -742.66784    660.59485   -82.072997    195.85867 
   65200    309.12295   -240.03256        81000   -739.13688    679.09891   -60.037964   -22.021007 
   65300    299.62131   -373.66044        81000   -700.12907    658.22517   -41.903899   -82.109733 
   65400    298.70477   -590.71606        81000   -730.90672    656.21166   -74.695062   -177.87581 
   65500    285.68849   -124.00667        81000   -739.70837    627.61675   -112.09161    55.828852 
   65600    280.00795   -501.42149        81000   -721.83818    615.13744   -106.70074   -179.82135 
   65700    312.92891    40.397967        81000   -758.39438    687.46006   -70.934327   -76.684822 
   65800    313.39378    -246.7956        81000     -748.719    688.48131   -60.237691   -142.70832 
   65900    312.94718    410.28639        81000   -769.11709    687.50019   -81.616894    172.91077 
   66000    301.21489    72.509055        81000   -757.50914    661.72604   -95.783103    103.37052 
   66100    291.26194    81.306519        81000    -752.1297    639.86083   -112.26887    11.701876 
   66200    281.80956      165.608        81000   -740.11161    619.09531    -121.0163    69.781077 
   66300    296.71661   -118.64243        81000   -751.21285    651.84397   -99.368876    26.669857 
   66400    311.98936    -193.8286        81000   -747.29925      685.396   -61.903244   -120.27905 
   66500    307.69155   -197.50184        81000   -748.14466    675.95434   -72.190313    89.148038 
[...]
   91600    300.33355   -149.42259        81000   -750.23728    659.78986   -90.447424   -50.342114 
   91700    302.92369     313.1964        81000    -752.8083    665.48003   -87.328264    133.64109 
   91800    296.35959    49.588949        81000   -768.94736    651.05963   -117.88773    1.4443927 
   91900    292.66284    19.747191        81000   -781.16421    642.93842   -138.22579    182.34056 
   92000    290.90788   -112.12912        81000   -774.94625    639.08302   -135.86323   -127.01865 
   92100    296.38827    50.922519        81000   -742.71675    651.12265   -91.594103   -46.973792 
   92200    304.66592     114.2979        81000   -741.24365    669.30747    -71.93618    39.771231 
   92300    302.20627    126.41551        81000   -765.34407    663.90396    -101.4401    124.27669 
   92400    300.47516    463.46786        81000   -795.89484    660.10097   -135.79387     300.0339 
   92500    299.14711    200.59672        81000   -789.94101    657.18341    -132.7576    236.70437 
   92600    287.48939   -386.68359        81000   -756.22674    631.57308   -124.65366   -187.85188 
   92700    299.61049   -194.04036        81000    -758.1869    658.20141    -99.98549    75.209174 
   92800    313.82038   -179.47135        81000   -753.60266     689.4185   -64.184162   -49.349662 
   92900    308.01501    197.31451        81000   -770.25795    676.66494    -93.59301   -24.204245 
   93000    296.31584    -81.52269        81000   -782.51372    650.96353   -131.55019    130.54891 
   93100    299.83549   -545.38725        81000   -790.33752    658.69569   -131.64183   -183.22092 
   93200    299.42143   -281.13798        81000   -775.13969    657.78607   -117.35362   -53.767132 
   93300    305.26506    52.913814        81000   -752.74055     670.6237   -82.116855     50.55229 
   93400    314.41761   -316.99584        81000    -750.5527    690.73054   -59.822159   -132.86569 
   93500    295.52886    163.35865        81000   -767.23115    649.23465   -117.99651    2.8489855 
   93600    289.08626    211.14499        81000    -772.3838    635.08118   -137.30262    -41.29328 
   93700    302.28353    313.61591        81000   -792.72866     664.0737   -128.65497    141.54135 
   93800    300.68686    195.90621        81000   -774.67546    660.56604   -114.10942    123.75119 
   93900    307.93323    104.62981        81000   -774.47832    676.48528   -97.993044   -43.724472 
   94000    292.86284    509.24307        81000    -727.1859    643.37778   -83.808122    98.820526 
   94100    307.08322   -246.30138        81000   -734.07462    674.61791   -59.456702   -222.30035 
   94200    295.93864   -85.058075        81000   -721.24595    650.13489   -71.111067    17.907384 
   94300    300.94683    242.14506        81000   -780.49583    661.13715   -119.35869    131.42294 
   94400    287.94541    -89.24088        81000   -760.24851    632.57489   -127.67362    130.83356 
   94500    296.56545   -336.82559        81000   -754.15429    651.51188   -102.64241   -36.256884 
   94600    304.56024    -369.1339        81000   -755.77029    669.07529   -86.694997    79.506703 
   94700    293.73233   -160.74811        81000   -731.23727    645.28793   -85.949331    214.43546 
   94800    293.19529   -364.05946        81000   -732.38319    644.10812   -88.275072   -57.105242 
   94900    293.60696     -366.872        81000   -731.91497    645.01251   -86.902457    143.40772 
   95000    309.41315   -410.05296        81000    -759.3246    679.73645   -79.588143    -85.03804 
   95100    315.26542   -35.234413        81000   -785.68746    692.59304   -93.094413  -0.97169079 
   95200    285.15273   -26.388143        81000   -771.83865    626.43976   -145.39889  -0.72564737 
   95300    281.00026   -30.373556        81000   -787.15719     617.3174    -169.8398    17.201853 
   95400    287.35293   -130.03742        81000   -774.72006     631.2733   -143.44675    15.013525 
   95500    297.63999    438.87216        81000   -765.28473    653.87251   -111.41223     264.7864 
   95600    305.05473    88.946293        81000    -763.4088    670.16163   -93.247174    109.15547 
   95700    291.03999    434.84156        81000   -750.35392    639.37325   -110.98067    178.71084 
   95800    291.81915    111.74831        81000   -795.16328    641.08496   -154.07832     4.323752 
   95900    296.41713    2.3386614        81000   -826.44333    651.18605   -175.25728   -7.1520348 
   96000    292.01993   -69.334516        81000   -807.96889    641.52603   -166.44286   -140.22894 
   96100     288.9531   -135.95763        81000    -787.1517    634.78863   -152.36306    46.497807 
   96200    305.55162     397.4859        81000   -810.52571    671.25322   -139.27249    271.11723 
   96300    288.73064    142.36134        81000   -775.53366    634.29994   -141.23372    28.120899 
   96400      285.665    169.72262        81000   -800.69871    627.56517   -173.13354    193.22435 
   96500    280.24104   -619.69296        81000   -818.40975     615.6495   -202.76025   -132.12176 
   96600    289.16551    176.09788        81000   -820.00423    635.25528   -184.74896     48.22946 
   96700    300.69617    158.05408        81000   -799.82001    660.58649   -139.23352   -62.221356 
   96800    306.01905   -171.87657        81000   -811.05833     672.2801   -138.77823   -126.30459 
   96900     304.3645    112.93413        81000   -817.50466    668.64529   -148.85937    107.31354 
   97000    287.47014    570.82943        81000   -789.92381    631.53079   -158.39302    172.01206 
   97100    307.12342    204.35076        81000   -802.47852    674.70624   -127.77228    167.97116 
   97200    323.58146   -327.03806        81000   -802.60784     710.8622   -91.745643   0.38962748 
   97300    300.52876   -83.263789        81000   -758.75867     660.2187   -98.539962   -3.9014876 
   97400    283.23314    452.39183        81000   -748.21261    622.22271    -125.9899    171.03535 
   97500    281.71778   -189.86633        81000   -787.70237    618.89367    -168.8087   -50.151164 
   97600    275.38499   -85.900667        81000   -788.42178    604.98145   -183.44034   -21.473734 
   97700    294.89022   -117.66826        81000   -781.34881    647.83165   -133.51716    5.7211135 
   97800    302.58984    179.23389        81000   -776.90649    664.74661   -112.15988    164.95699 
   97900    300.21912   -150.77863        81000   -760.47033    659.53848   -100.93185   -54.673383 
   98000    297.37883   -108.66157        81000   -757.14586    653.29877   -103.84709    125.17738 
   98100    298.58531    201.14269        81000   -794.82608    655.94924   -138.87684    147.54481 
   98200    284.56828   -94.446501        81000   -787.30251    625.15583   -162.14668   -39.128431 
   98300    284.07832      74.1977        81000   -776.39503    624.07944   -152.31558     110.8859 
   98400    311.20662   -70.363179        81000   -773.82116    683.67644   -90.144716    91.552585 
   98500    315.57821    115.85988        81000   -781.44037    693.28021   -88.160163     56.23294 
   98600    305.72488   -33.126632        81000   -799.26824    671.63385   -127.63439   -147.57095 
   98700    285.46353    -185.1245        81000   -779.73073    627.12256   -152.60817   -7.7457239 
   98800    294.89675   -57.328644        81000   -800.14548      647.846   -152.29948    214.43932 
   98900    291.18041   -35.922884        81000    -778.5489    639.68173   -138.86717    28.009611 
   99000    301.20054    95.023913        81000    -744.6364    661.69452   -82.941878    132.61741 
   99100     298.1772    255.80899        81000   -740.94365    655.05267   -85.890976    148.11739 
   99200    294.04085   -404.92002        81000   -747.64484     645.9657   -101.67914   -92.478693 
   99300    285.38479    60.631539        81000   -756.39327    626.94957   -129.44371    121.16696 
   99400     291.4179   -495.30136        81000   -773.85034    640.20345    -133.6469   -217.18372 
   99500    291.34135    143.46914        81000   -720.76327    640.03528   -80.727987    112.67425 
   99600    304.31451    31.091347        81000   -724.92294    668.53547   -56.387469    63.227356 
   99700    304.94864   -66.755362        81000   -746.11681    669.92855    -76.18826   -11.095676 
   99800    304.93571    294.31515        81000   -779.80097    669.90015   -109.90082     39.41377 
   99900    290.96815     53.02594        81000   -765.68019    639.21542   -126.46477   -58.154252 
  100000    288.77672   -125.05644        81000   -736.18285    634.40116   -101.78169    62.938658 
  100100     319.0183   -581.69853        81000   -748.58024    700.83758   -47.742663   -227.41376 
  100200    313.44078   -196.14232        81000   -744.87101    688.58457   -56.286443   -66.616752 
  100300    292.31603     -147.197        81000   -737.50051    642.17651   -95.323995    97.553518 
  100400    295.29804   -238.12074        81000   -769.92381    648.72758   -121.19623    83.631384 
  100500    301.07417    722.40075        81000   -788.14246    661.41691   -126.72555    543.23735 
  100600    306.29411    148.19882        81000   -775.03937    672.88435   -102.15501    153.98196 
  100700    304.47279   -270.91712        81000   -727.39618    668.88319    -58.51299   -50.461945 
  100800    316.60391     7.672607        81000   -760.06849    695.53352   -64.534974    212.46097 
  100900     302.9666   -237.79396        81000   -791.69825    665.57429   -126.12396   -101.74153 
  101000    289.61495   -256.61328        81000   -761.37309    636.24264   -125.13045   -219.84346 
  101100    300.98552    221.09929        81000   -755.80452    661.22215   -94.582374     103.7163 
  101200    295.86754    206.76662        81000    -727.9182    649.97867   -77.939534    130.06767 
  101300    302.08251    21.355312        81000   -743.28962    663.63208   -79.657538   -95.956058 
  101400    297.70008    401.44103        81000   -782.56855    654.00451   -128.56404    135.76228 
  101500     289.7464    103.84042        81000   -777.45102     636.5314   -140.91961   -53.614062 
  101600    297.08425    40.348435        81000   -774.29237    652.65161   -121.64075    43.924077 
  101700    300.30351    77.167882        81000   -754.79622    659.72387   -95.072342    7.7778892 
  101800    303.07311    216.67857        81000   -763.50408    665.80828   -97.695805    63.193794 
  101900    302.78466     26.72036        81000   -783.25786     665.1746   -118.08326   -22.904515 
  102000    283.21125     319.4201        81000   -765.99981    622.17463   -143.82518    213.44841 
  102100    288.78062   -257.27096        81000    -786.6616    634.40974   -152.25186   -93.568723 
  102200    311.81593   -191.42556        81000   -803.06721    685.01501    -118.0522    153.81886 
  102300    318.90393    -263.8533        81000   -776.60555    700.58634   -76.019205   -59.354212 
  102400    299.07081   -203.28255        81000   -762.55459     657.0158    -105.5388      31.2652 
  102500    300.59436    257.66228        81000   -794.61864    660.36282   -134.25582    261.03729 
  102600    303.73481   -49.089307        81000   -810.68222    667.26194   -143.42028   0.32163419 
  102700    306.91068    82.882956        81000   -801.26269    674.23887   -127.02382    123.18807 
  102800    312.36903    183.73273        81000   -777.34461    686.23009   -91.114521    55.372812 
  102900    319.73604   -11.935072        81000   -771.06229    702.41435    -68.64794   -98.990853 
  103000    299.16465   -345.28804        81000   -772.27931    657.22196   -115.05735   -225.95899 
  103100    302.60068   -390.75562        81000   -810.99572    664.77042    -146.2253   -227.82432 
  103200    290.01207    162.08314        81000   -794.28648    637.11506   -157.17143    18.058429 
  103300    288.58695   -156.97647        81000   -786.31425    633.98426   -152.32999   -104.25042 
  103400    315.19152   -30.847692        81000   -796.86098    692.43071   -104.43027    30.054543 
  103500    308.56917   -139.27823        81000   -767.19528    677.88234   -89.312932    87.251391 
  103600    297.34202    -39.71536        81000   -765.81453    653.21791   -112.59662   -42.170111 
  103700    287.36106   -279.13025        81000   -761.15097    631.29117    -129.8598   -114.83922 
  103800    291.46934   -282.71827        81000   -767.74088    640.31647   -127.42442   -9.9073067 
  103900     291.2945    147.49741        81000   -758.10357    639.93236   -118.17121    43.224329 
  104000    299.53792   -159.37743        81000    -765.6954    658.04198   -107.65342   -77.710401 
  104100    294.94928    72.959316        81000   -752.29186     647.9614   -104.33046    193.70626 
  104200     310.1524    11.786613        81000   -783.50139    681.36048    -102.1409    13.640795 
  104300     292.5857    281.42626        81000   -754.68854    642.76895   -111.91959    133.97918 
  104400    288.75945    216.24261        81000   -767.29256    634.36321   -132.92935    41.525815 
  104500     298.2544   -85.150797        81000   -778.59569    655.22227   -123.37342    17.615257 
  104600    295.67073   -491.28979        81000   -730.83823     649.5463   -81.291926   -221.40514 
  104700    309.44533   -315.52976        81000   -746.76094    679.80714   -66.953804   -5.3290242 
  104800     296.4405    35.767363        81000   -738.11796     651.2374   -86.880567    116.88006 
  104900    302.33406   -428.05186        81000   -779.87132     664.1847   -115.68662   -136.59032 
  105000    288.07648    63.826736        81000   -754.01515    632.86284   -121.15231    176.75652 
  105100    289.42283   -177.08074        81000    -743.2858    635.82057   -107.46523   -43.922272 
  105200    299.41204   -64.353587        81000   -753.42325    657.76544   -95.657806    49.617946 
  105300    315.73101     4.555511        81000   -778.21294    693.61588   -84.597059    48.697868 
  105400    303.33158    146.66957        81000   -773.58551    666.37612   -107.20939    143.79814 
  105500    294.13784    133.86277        81000   -790.35565    646.17878   -144.17687    229.22706 
  105600    285.78223    240.86158        81000   -780.66265    627.82269   -152.83996    151.53257 
  105700    309.51665   -77.451688        81000   -792.81733    679.96383    -112.8535   -16.133988 
  105800    300.43914   -315.36012        81000   -753.57842    660.02184   -93.556581   -23.498569 
  105900    303.22761    220.63614        81000   -772.92914     666.1477   -106.78144    161.14277 
  106000    298.97836    95.487503        81000   -790.01106    656.81271   -133.19836    88.913087 
  106100    291.68707    252.81568        81000    -791.6921    640.79478   -150.89733    111.77001 
  106200    295.54265    308.04167        81000   -794.53661    649.26494   -145.27167    137.46792 
  106300    298.36963   -138.29046        81000   -784.19369    655.47541   -128.71828   -133.29865 
  106400    316.13366   -143.09268        81000   -766.74609    694.50045   -72.245643   -9.1193384 
  106500    308.90791    -51.94995        81000   -765.51163     678.6265   -86.885122   -35.945979 
  106600    289.54807    10.722725        81000   -762.29492     636.0957   -126.19922   -80.588538 
  106700    312.02783    -103.5295        81000   -821.30554    685.48053   -135.82502     110.2514 
  106800    294.68961    1.4429059        81000   -793.00704    647.39093   -145.61611    5.8665068 
  106900    291.41098    27.027077        81000   -772.99098    640.18825   -132.80273    141.93173 
  107000    305.09268    153.49286        81000   -754.07065      670.245   -83.825657    151.90086 
  107100    301.58207    68.666708        81000   -748.66374    662.53269   -86.131052    81.926148 
  107200    302.20081   -72.111349        81000   -783.32822    663.89197   -119.43625   -4.6295417 
  107300    299.58592    30.391013        81000   -796.87472    658.14743   -138.72728     100.8753 
  107400    292.39381   -207.79485        81000   -780.71853    642.34739   -138.37114    2.5542426 
  107500    303.20752    -164.1248        81000   -801.30891    666.10356   -135.20535    80.754733 
  107600    291.86167    253.79225        81000   -767.59493    641.17834   -126.41658    132.96434 
  107700    302.98893   -201.95974        81000   -738.73734    665.62336   -73.113977   -103.90313 
  107800    309.36447    37.398973        81000    -752.0241     679.6295   -72.394597    157.95987 
  107900    293.10567   -485.34799        81000   -742.20497    643.91125   -98.293721   -106.86743 
  108000    304.37254    8.8610845        81000   -782.74375    668.66296   -114.08079    48.819875 
  108100    288.27691   -57.927317        81000   -752.26634    633.30314    -118.9632   -13.052587 
  108200    300.64238   -98.386603        81000   -778.82539    660.46832   -118.35707    77.585658 
  108300    290.95646    -421.1321        81000   -766.70717    639.18974   -127.51743    33.323092 
  108400    295.86548   -319.34794        81000   -781.70929    649.97415   -131.73514   -141.32551 
  108500     304.0028    31.251036        81000   -790.14333    667.85067   -122.29266    127.95009 
  108600    310.23214   -405.54997        81000   -777.76528    681.53565   -96.229628   -201.79873 
  108700     307.7502   -71.480484        81000   -754.35135    676.08318   -78.268172    6.2274371 
  108800     302.7398    562.62202        81000   -758.30133    665.07605    -93.22528    113.69753 
  108900    292.46509    91.419959        81000   -780.78565    642.50398   -138.28167    114.18077 
  109000    287.84861   -189.88763        81000   -774.28954    632.36223   -141.92731   -47.279925 
  109100    312.09198    10.284611        81000   -785.77807    685.62146   -100.15661   -76.670529 
  109200    292.14038   -216.00564        81000   -722.38945    641.79063   -80.598818   -211.76715 
  109300    306.18028   -391.38916        81000   -734.28123    672.63429   -61.646946   -149.46416 
  109400     295.9256   -465.12739        81000   -726.56921    650.10623    -76.46298   -109.13144 
  109500    288.79244   -430.20624        81000   -755.30027    634.43569   -120.86458   -220.74218 
  109600    297.38659   -201.67293        81000   -779.79254    653.31582   -126.47672    36.235478 
  109700    289.53673   -755.83097        81000   -746.84396     636.0708   -110.77316   -175.53949 
  109800     302.2961   -798.82939        81000   -761.40543    664.10131   -97.304119   -320.22399 
  109900    305.70333   -137.31231        81000   -768.34414    671.58649   -96.757645   -90.474755 
  110000    295.13889   -188.99852        81000    -776.9702    648.37794   -128.59226   -71.277692 
Loop time of 195.134 on 1 procs for 100000 steps with 738 atoms

Performance: 88.555 ns/day, 0.271 hours/ns, 512.470 timesteps/s
99.5% CPU use with 1 MPI tasks x 1 OpenMP threads

MPI task timing breakdown:
Section |  min time  |  avg time  |  max time  |%varavg| %total
---------------------------------------------------------------
Pair    | 158.17     | 158.17     | 158.17     |   0.0 | 81.06
Bond    | 21.04      | 21.04      | 21.04      |   0.0 | 10.78
Neigh   | 6.806      | 6.806      | 6.806      |   0.0 |  3.49
Comm    | 6.2713     | 6.2713     | 6.2713     |   0.0 |  3.21
Output  | 0.041232   | 0.041232   | 0.041232   |   0.0 |  0.02
Modify  | 2.4229     | 2.4229     | 2.4229     |   0.0 |  1.24
Other   |            | 0.3779     |            |       |  0.19

Nlocal:    738 ave 738 max 738 min
Histogram: 1 0 0 0 0 0 0 0 0 0
Nghost:    3291 ave 3291 max 3291 min
Histogram: 1 0 0 0 0 0 0 0 0 0
Neighs:    92126 ave 92126 max 92126 min
Histogram: 1 0 0 0 0 0 0 0 0 0

Total # of neighbors = 92126
Ave neighs/atom = 124.832
Ave special neighs/atom = 4
Neighbor list builds = 2687
Dangerous builds = 0
  unfix label1						# Erase time evolution scheme
							#
							#
#=======================================================#

Total wall time: 0:03:18
