LAMMPS (11 Aug 2017)
OMP_NUM_THREADS environment is not set. Defaulting to 1 thread. (../comm.cpp:90)
  using 1 OpenMP thread(s) per MPI task
Reading data file ...
  orthogonal box = (0 0 0) to (24.2576 24.2576 24.2576)
  1 by 1 by 1 MPI processor grid
  reading atoms ...
  584 atoms
  scanning bonds ...
  4 = max bonds/atom
  reading bonds ...
  696 bonds
Finding 1-2 1-3 1-4 neighbors ...
  special bond factors lj:   0          0          0         
  special bond factors coul: 0          0          0         
  4 = max # of 1-2 neighbors
  6 = max # of 1-3 neighbors
  16 = max # of 1-4 neighbors
  20 = max # of special neighbors
584 atoms in group faujasite
Read molecule CO2:
  3 atoms with 5 types
  2 bonds with 2 types
  0 angles with 0 types
  0 dihedrals with 0 types
  0 impropers with 0 types
0 atoms in group CO2
384 atoms in group O
192 atoms in group Si
8 atoms in group sodalite
Setting atom values ...
  384 settings made for charge
Setting atom values ...
  192 settings made for charge
Setting atom values ...
  8 settings made for charge
1 rigid bodies with 584 atoms
Ewald initialization ...
WARNING: Using 12-bit tables for long-range coulomb (../kspace.cpp:321)
  G vector (1/distance) = 0.238294
  estimated absolute RMS force accuracy = 0.00333133
  estimated relative force accuracy = 1.00322e-05
  KSpace vectors: actual max1d max3d = 462 6 1098
                  kxmax kymax kzmax  = 6 6 6
0 atoms in group FixGCMC:gcmc_exclusion_group:fxgc
0 atoms in group FixGCMC:rotation_gas_atoms:fxgc
WARNING: Neighbor exclusions used with KSpace solver may give inconsistent Coulombic energies (../neighbor.cpp:472)
Neighbor list info ...
  update every 1 steps, delay 0 steps, check no
  max neighbors/atom: 100000, page size: 5000000
  master list distance cutoff = 14
  ghost atom cutoff = 14
  binsize = 7, bins = 4 4 4
  1 neighbor lists, perpetual/occasional/extra = 1 0 0
  (1) pair lj/cut/coul/long, perpetual
      attributes: half, newton on
      pair build: half/bin/newton
      stencil: half/bin/3d/newton
      bin: standard
Setting up Verlet run ...
  Unit style    : real
  Current step  : 0
  Time step     : 1
Per MPI rank memory allocation (min/avg/max) = 36.08 | 36.08 | 36.08 Mbytes
Step v_CO2ad PotEng Density Temp 
       0            0   -7912.2666    1.3420473            0 
      50            4    -7923.424    1.3625219    142.61148 
     100            6    -7929.291    1.3727593     167.5482 
     150            8    -7937.684    1.3829966    144.32114 
     200           11   -7948.5476    1.3983526    129.34579 
     250           14   -7952.3138    1.4137087    118.00378 
     300           16   -7958.3973     1.423946    111.02487 
     350           19   -7967.3526     1.439302    116.54791 
     400           20   -7972.5928    1.4444207    112.67925 
     450           21   -7975.8287    1.4495394    111.80318 
     500           23   -7986.0235    1.4597767    125.37096 
     550           26   -7999.3348    1.4751327    120.53861 
     600           26   -7998.4123    1.4751327    120.53861 
     650           27   -8002.7847    1.4802514    120.05919 
     700           29   -8008.6817    1.4904887    119.18607 
     750           31   -8022.6458    1.5007261    115.06306 
     800           31   -8022.3522    1.5007261    115.06306 
     850           31   -8023.2553    1.5007261    115.06306 
     900           32   -8028.6634    1.5058447    113.25791 
     950           35   -8036.6313    1.5212008    114.47257 
    1000           37   -8045.6003    1.5314381    111.47935 
    1050           37   -8047.4163    1.5314381    111.47935 
    1100           37   -8047.7299    1.5314381    111.47935 
    1150           37   -8048.2772    1.5314381    111.47935 
    1200           39    -8054.585    1.5416754    107.81336 
    1250           40   -8060.2042    1.5467941     105.2607 
    1300           40   -8061.0793    1.5467941     105.2607 
    1350           40   -8061.8521    1.5467941     105.2607 
    1400           40   -8064.1336    1.5467941     105.2607 
    1450           40   -8063.0365    1.5467941     105.2607 
    1500           40   -8056.0653    1.5467941     105.2607 
    1550           40   -8057.2809    1.5467941     105.2607 
    1600           41    -8058.294    1.5519128    104.26314 
    1650           41   -8056.6222    1.5519128    104.26314 
    1700           41   -8055.9655    1.5519128    104.26314 
    1750           41   -8056.5831    1.5519128    104.26314 
    1800           42   -8063.9232    1.5570315    102.84265 
    1850           43   -8066.8597    1.5621501    103.81573 
    1900           43   -8070.3001    1.5621501    103.81573 
    1950           43   -8074.2259    1.5621501    101.78128 
    2000           45   -8084.1698    1.5723875     100.6783 
    2050           46   -8089.9221    1.5775062    103.10953 
    2100           46    -8089.849    1.5775062    103.10953 
    2150           46   -8090.2564    1.5775062    103.10953 
    2200           47   -8091.9632    1.5826248    103.59433 
    2250           48   -8095.5814    1.5877435    102.45216 
    2300           48   -8095.5769    1.5877435    102.45216 
    2350           48    -8097.063    1.5877435    102.45216 
    2400           49   -8096.3218    1.5928622    101.07273 
    2450           48    -8096.621    1.5877435    102.45216 
    2500           48   -8097.5511    1.5877435    102.45216 
    2550           48   -8097.1902    1.5877435    102.45216 
    2600           48    -8099.225    1.5877435    102.45216 
    2650           49   -8100.8531    1.5928622    101.60989 
    2700           49   -8101.9092    1.5928622    101.60989 
    2750           49   -8102.5788    1.5928622    101.60989 
    2800           49    -8103.375    1.5928622    101.60989 
    2850           49   -8104.1775    1.5928622    101.60989 
    2900           50   -8106.3249    1.5979808    103.75837 
    2950           51    -8114.738    1.6030995    101.84215 
    3000           51    -8114.518    1.6030995    101.84215 
    3050           51   -8114.5426    1.6030995    101.84215 
    3100           51   -8113.0095    1.6030995    101.84215 
    3150           51   -8113.5932    1.6030995    101.84215 
    3200           51   -8115.4797    1.6030995    101.84215 
    3250           51   -8116.1407    1.6030995    101.84215 
    3300           52   -8120.1997    1.6082182    100.52674 
    3350           52   -8117.9374    1.6082182    100.52674 
    3400           52   -8117.4376    1.6082182    100.52674 
    3450           52   -8122.5566    1.6082182    100.52674 
    3500           51   -8120.0269    1.6030995    98.703817 
    3550           51    -8118.796    1.6030995    98.703817 
    3600           51   -8118.7249    1.6030995    98.703817 
    3650           51   -8116.6287    1.6030995    98.703817 
    3700           51    -8115.022    1.6030995    98.703817 
    3750           51   -8115.5043    1.6030995    98.703817 
    3800           52   -8120.7541    1.6082182    102.75093 
    3850           52   -8120.5481    1.6082182    102.75093 
    3900           52   -8122.3955    1.6082182    102.75093 
    3950           53   -8126.8633    1.6133369    102.69402 
    4000           53   -8123.7422    1.6133369    102.69402 
    4050           53   -8126.9665    1.6133369    102.69402 
    4100           53   -8124.6991    1.6133369    102.69402 
    4150           53    -8125.274    1.6133369    102.69402 
    4200           53   -8127.1925    1.6133369    102.69402 
    4250           53   -8127.9078    1.6133369    102.69402 
    4300           53   -8128.9726    1.6133369    102.69402 
    4350           53   -8126.5444    1.6133369    102.69402 
    4400           53   -8126.8547    1.6133369    102.69402 
    4450           54   -8127.8514    1.6184555    104.41777 
    4500           54   -8129.2845    1.6184555    104.41777 
    4550           54   -8131.9094    1.6184555    104.41777 
    4600           54   -8128.7907    1.6184555    104.41777 
    4650           54   -8130.3189    1.6184555    104.41777 
    4700           54   -8131.2948    1.6184555    104.41777 
    4750           54   -8131.8999    1.6184555    104.41777 
    4800           54   -8130.0819    1.6184555    104.41777 
    4850           54   -8131.4296    1.6184555    104.41777 
    4900           54   -8133.8693    1.6184555    104.41777 
    4950           54   -8132.3102    1.6184555    104.41777 
    5000           54   -8131.3275    1.6184555    104.41777 
    5050           54   -8131.5568    1.6184555    104.41777 
    5100           54   -8131.8416    1.6184555    104.41777 
    5150           54   -8132.8988    1.6184555    104.41777 
    5200           54   -8131.9543    1.6184555    104.41777 
    5250           54   -8131.7656    1.6184555    104.41777 
    5300           54   -8135.5371    1.6184555    104.41777 
    5350           54   -8134.1408    1.6184555    104.41777 
    5400           54   -8132.5649    1.6184555    104.41777 
    5450           54   -8135.4123    1.6184555    104.41777 
    5500           54   -8137.2337    1.6184555    104.41777 
    5550           54   -8138.5962    1.6184555    104.41777 
    5600           54   -8136.2585    1.6184555    104.41777 
    5650           54   -8134.3422    1.6184555    104.41777 
    5700           54   -8139.3359    1.6184555    104.41777 
    5750           54   -8139.5763    1.6184555    104.41777 
    5800           54   -8137.6409    1.6184555    104.41777 
    5850           54   -8133.3158    1.6184555    104.41777 
    5900           54   -8129.7755    1.6184555      107.624 
    5950           54   -8133.7246    1.6184555      107.624 
    6000           54   -8132.6245    1.6184555      107.624 
    6050           53   -8134.0919    1.6133369    105.75681 
    6100           54   -8141.2315    1.6184555    105.35613 
    6150           54   -8143.6642    1.6184555    105.35613 
    6200           54   -8142.7985    1.6184555    105.35613 
    6250           54   -8143.5158    1.6184555    105.35613 
    6300           55   -8147.3724    1.6235742    103.72274 
    6350           55   -8147.9441    1.6235742    103.72274 
    6400           55   -8149.0881    1.6235742    103.72274 
    6450           55   -8151.0947    1.6235742    103.72274 
    6500           55    -8148.963    1.6235742    103.72274 
    6550           56   -8152.2221    1.6286929    102.49826 
    6600           56   -8150.2335    1.6286929    102.49826 
    6650           56   -8149.4562    1.6286929    102.49826 
    6700           56    -8151.474    1.6286929    102.49826 
    6750           56   -8153.2659    1.6286929    102.49826 
    6800           56   -8153.2031    1.6286929    102.49826 
    6850           56   -8151.1583    1.6286929    102.49826 
    6900           57   -8152.6389    1.6338115    101.54661 
    6950           57   -8154.0209    1.6338115    101.54661 
    7000           57    -8155.491    1.6338115    101.54661 
    7050           58   -8160.4587    1.6389302     101.2404 
    7100           58   -8160.8728    1.6389302     101.2404 
    7150           58   -8159.6124    1.6389302     101.2404 
    7200           58   -8159.9476    1.6389302     101.2404 
    7250           58   -8158.1869    1.6389302     101.2404 
    7300           58    -8159.738    1.6389302     101.2404 
    7350           58   -8158.8154    1.6389302     101.2404 
    7400           58    -8162.324    1.6389302     101.2404 
    7450           58   -8158.1291    1.6389302     101.2404 
    7500           58   -8158.7548    1.6389302     101.2404 
    7550           58   -8158.7439    1.6389302     101.2404 
    7600           58   -8158.6109    1.6389302     101.2404 
    7650           58   -8161.7636    1.6389302     101.2404 
    7700           58   -8161.5329    1.6389302     101.2404 
    7750           58   -8161.5919    1.6389302     101.2404 
    7800           57   -8159.7129    1.6338115    102.40023 
    7850           57   -8159.6954    1.6338115    102.40023 
    7900           57   -8158.4151    1.6338115    102.40023 
    7950           57   -8158.9378    1.6338115    102.40023 
    8000           57   -8158.1444    1.6338115    102.40023 
    8050           57   -8158.3089    1.6338115    102.40023 
    8100           57   -8156.2072    1.6338115    102.40023 
    8150           57   -8154.6428    1.6338115    102.40023 
    8200           57    -8153.522    1.6338115    102.40023 
    8250           57    -8152.739    1.6338115    102.40023 
    8300           57   -8152.5695    1.6338115    102.40023 
    8350           57   -8156.2867    1.6338115    102.40023 
    8400           57   -8154.3467    1.6338115    102.40023 
    8450           57   -8154.9478    1.6338115    102.40023 
    8500           57   -8160.2399    1.6338115    102.40023 
    8550           58   -8165.2179    1.6389302    104.80654 
    8600           58   -8166.1245    1.6389302    104.80654 
    8650           58   -8168.2664    1.6389302    104.80654 
    8700           59   -8171.2136    1.6440489     104.5363 
    8750           59   -8168.7713    1.6440489     104.5363 
    8800           60    -8170.121    1.6491676    103.96092 
    8850           60   -8173.2224    1.6491676    103.96092 
    8900           60   -8175.4465    1.6491676    103.96092 
    8950           60    -8169.572    1.6491676    103.96092 
    9000           60   -8177.5695    1.6491676    103.96092 
    9050           60   -8176.5461    1.6491676    103.96092 
    9100           60   -8179.3742    1.6491676    103.96092 
    9150           60   -8179.2192    1.6491676    103.96092 
    9200           60    -8175.595    1.6491676    103.96092 
    9250           59   -8171.6669    1.6440489    104.90514 
    9300           58   -8169.8798    1.6389302    105.50657 
    9350           58   -8169.6001    1.6389302    105.50657 
    9400           58    -8168.629    1.6389302    105.50657 
    9450           59   -8169.2777    1.6440489    103.84408 
    9500           59   -8170.3019    1.6440489    103.84408 
    9550           60   -8171.3325    1.6491676     102.8448 
    9600           60   -8172.2928    1.6491676     102.8448 
    9650           60   -8174.1376    1.6491676     102.8448 
    9700           60   -8176.2673    1.6491676     102.8448 
    9750           60   -8177.7383    1.6491676     102.8448 
    9800           61   -8179.2257    1.6542862    102.09735 
    9850           61   -8178.0957    1.6542862    102.09735 
    9900           61   -8178.0983    1.6542862    102.09735 
    9950           61    -8181.435    1.6542862    102.09735 
   10000           61   -8181.7969    1.6542862    102.09735 
Loop time of 865.778 on 1 procs for 10000 steps with 767 atoms

Performance: 0.998 ns/day, 24.049 hours/ns, 11.550 timesteps/s
98.1% CPU use with 1 MPI tasks x 1 OpenMP threads

MPI task timing breakdown:
Section |  min time  |  avg time  |  max time  |%varavg| %total
---------------------------------------------------------------
Pair    | 15.342     | 15.342     | 15.342     |   0.0 |  1.77
Bond    | 0.0030024  | 0.0030024  | 0.0030024  |   0.0 |  0.00
Kspace  | 27.209     | 27.209     | 27.209     |   0.0 |  3.14
Neigh   | 99.233     | 99.233     | 99.233     |   0.0 | 11.46
Comm    | 42.221     | 42.221     | 42.221     |   0.0 |  4.88
Output  | 0.014796   | 0.014796   | 0.014796   |   0.0 |  0.00
Modify  | 681.62     | 681.62     | 681.62     |   0.0 | 78.73
Other   |            | 0.1327     |            |       |  0.02

Nlocal:    767 ave 767 max 767 min
Histogram: 1 0 0 0 0 0 0 0 0 0
Nghost:    7162 ave 7162 max 7162 min
Histogram: 1 0 0 0 0 0 0 0 0 0
Neighs:    102930 ave 102930 max 102930 min
Histogram: 1 0 0 0 0 0 0 0 0 0

Total # of neighbors = 102930
Ave neighs/atom = 134.198
Ave special neighs/atom = 10.2243
Neighbor list builds = 39990
Dangerous builds not checked
Total wall time: 0:14:25
