LAMMPS (11 Aug 2017)
OMP_NUM_THREADS environment is not set. Defaulting to 1 thread. (../comm.cpp:90)
  using 1 OpenMP thread(s) per MPI task
Reading data file ...
  orthogonal box = (0 0 0) to (24.2576 24.2576 24.2576)
  1 by 1 by 1 MPI processor grid
  reading atoms ...
  584 atoms
  scanning bonds ...
  4 = max bonds/atom
  reading bonds ...
  696 bonds
Finding 1-2 1-3 1-4 neighbors ...
  special bond factors lj:   0          0          0         
  special bond factors coul: 0          0          0         
  4 = max # of 1-2 neighbors
  6 = max # of 1-3 neighbors
  16 = max # of 1-4 neighbors
  20 = max # of special neighbors
584 atoms in group faujasite
Read molecule CO2:
  3 atoms with 5 types
  2 bonds with 2 types
  0 angles with 0 types
  0 dihedrals with 0 types
  0 impropers with 0 types
0 atoms in group CO2
384 atoms in group O
192 atoms in group Si
8 atoms in group sodalite
Setting atom values ...
  384 settings made for charge
Setting atom values ...
  192 settings made for charge
Setting atom values ...
  8 settings made for charge
1 rigid bodies with 584 atoms
Ewald initialization ...
WARNING: Using 12-bit tables for long-range coulomb (../kspace.cpp:321)
  G vector (1/distance) = 0.238294
  estimated absolute RMS force accuracy = 0.00333133
  estimated relative force accuracy = 1.00322e-05
  KSpace vectors: actual max1d max3d = 462 6 1098
                  kxmax kymax kzmax  = 6 6 6
0 atoms in group FixGCMC:gcmc_exclusion_group:fxgc
0 atoms in group FixGCMC:rotation_gas_atoms:fxgc
WARNING: Neighbor exclusions used with KSpace solver may give inconsistent Coulombic energies (../neighbor.cpp:472)
Neighbor list info ...
  update every 1 steps, delay 0 steps, check no
  max neighbors/atom: 100000, page size: 5000000
  master list distance cutoff = 14
  ghost atom cutoff = 14
  binsize = 7, bins = 4 4 4
  1 neighbor lists, perpetual/occasional/extra = 1 0 0
  (1) pair lj/cut/coul/long, perpetual
      attributes: half, newton on
      pair build: half/bin/newton
      stencil: half/bin/3d/newton
      bin: standard
Setting up Verlet run ...
  Unit style    : real
  Current step  : 0
  Time step     : 1
Per MPI rank memory allocation (min/avg/max) = 36.08 | 36.08 | 36.08 Mbytes
Step v_CO2ad PotEng Density Temp 
       0            0   -7912.2666    1.3420473            0 
      50            2   -7917.9903    1.3522846    67.909532 
     100            2   -7917.8073    1.3522846    68.436888 
     150            2   -7919.1043    1.3522846    58.714294 
     200            3   -7922.6658    1.3574033     69.25452 
     250            4   -7925.0171    1.3625219    43.903413 
     300            4   -7925.9522    1.3625219    62.971579 
     350            5   -7927.8238    1.3676406    108.05981 
     400            2   -7918.3832    1.3522846    119.65025 
     450            2   -7918.1241    1.3522846    119.65025 
     500            3   -7921.8563    1.3574033    59.139601 
     550            6    -7929.728    1.3727593     84.49012 
     600            5   -7929.9124    1.3676406    118.05863 
     650            4   -7924.3148    1.3625219    111.36868 
     700            4   -7925.4377    1.3625219    69.566173 
     750            5   -7930.5268    1.3676406    39.433606 
     800            5    -7929.918    1.3676406    30.187077 
     850            4   -7926.2969    1.3625219    28.238692 
     900            4   -7927.4559    1.3625219    28.238692 
     950            6   -7929.9866    1.3727593    52.172302 
    1000            4   -7926.3495    1.3625219    50.266084 
    1050            5   -7929.1487    1.3676406    63.601873 
    1100            3   -7923.4768    1.3574033    65.240218 
    1150            3   -7923.4346    1.3574033    42.344841 
    1200            2   -7918.4447    1.3522846    41.586332 
    1250            2   -7918.4458    1.3522846    35.582263 
    1300            5   -7929.2057    1.3676406    35.401468 
    1350            5   -7929.0279    1.3676406    47.650592 
    1400            6   -7930.7371    1.3727593    69.487337 
    1450            4   -7925.8359    1.3625219    37.097133 
    1500            3      -7923.2    1.3574033    25.844715 
    1550            6   -7930.8257    1.3727593    72.488811 
    1600            7    -7934.457     1.377878    72.885507 
    1650            7   -7937.0199     1.377878     90.71755 
    1700            6   -7932.4702    1.3727593     103.0637 
    1750            7   -7933.9833     1.377878    69.501505 
    1800            4   -7924.3834    1.3625219    126.39914 
    1850            6   -7932.0546    1.3727593     101.9131 
    1900            4   -7925.0304    1.3625219    106.64439 
    1950            2   -7918.0931    1.3522846    122.07955 
    2000            3   -7922.6505    1.3574033    121.52163 
    2050            6   -7930.6776    1.3727593     157.4008 
    2100            4   -7924.8968    1.3625219    158.32745 
    2150            2   -7918.8365    1.3522846    180.25042 
    2200            3   -7921.0938    1.3574033    134.85833 
    2250            3   -7920.5356    1.3574033    120.34373 
    2300            4   -7922.5705    1.3625219    112.56325 
    2350            4    -7924.491    1.3625219    52.451016 
    2400            5   -7926.2944    1.3676406    46.061098 
    2450            5   -7927.0189    1.3676406    63.679156 
    2500            5   -7926.2548    1.3676406    69.777602 
    2550            2   -7917.7584    1.3522846    78.882745 
    2600            1   -7914.6712    1.3471659    94.596045 
    2650            3   -7919.4414    1.3574033     187.0661 
    2700            0   -7912.2666    1.3420473            0 
    2750            3   -7921.5555    1.3574033    123.89191 
    2800            3   -7920.7329    1.3574033    126.56268 
    2850            5   -7927.9089    1.3676406    88.032096 
    2900            5   -7929.3715    1.3676406    50.626989 
    2950            3   -7921.5104    1.3574033    51.908142 
    3000            3   -7922.8801    1.3574033    29.404696 
    3050            5   -7929.3269    1.3676406     29.77545 
    3100            5   -7928.8166    1.3676406     75.97814 
    3150            5   -7928.6849    1.3676406    42.460084 
    3200            6   -7931.3109    1.3727593    116.11174 
    3250            2   -7919.4291    1.3522846    30.644239 
    3300            3   -7921.5878    1.3574033    112.27142 
    3350            4   -7925.4716    1.3625219    70.471844 
    3400            4   -7925.4079    1.3625219    90.991376 
    3450            7   -7933.4953     1.377878    85.739094 
    3500            4   -7924.8076    1.3625219     77.49832 
    3550            3   -7921.1377    1.3574033    57.543136 
    3600            2   -7917.9955    1.3522846    24.244751 
    3650            3   -7920.6668    1.3574033    64.770827 
    3700            1    -7914.347    1.3471659    48.471447 
    3750            3   -7921.8518    1.3574033    135.18987 
    3800            3   -7921.9271    1.3574033    172.74421 
    3850            4   -7924.7647    1.3625219    108.33464 
    3900            5   -7928.8854    1.3676406    76.174492 
    3950            6   -7931.3942    1.3727593    96.026508 
    4000            5   -7928.4569    1.3676406    110.59822 
    4050            4   -7924.7925    1.3625219    87.556736 
    4100            3   -7920.8263    1.3574033    47.585569 
    4150            1   -7916.0092    1.3471659    52.275638 
    4200            1   -7915.8274    1.3471659    52.275638 
    4250            3   -7921.2409    1.3574033    44.248216 
    4300            4   -7924.8612    1.3625219    108.93442 
    4350            5   -7928.2991    1.3676406     109.5075 
    4400            6   -7930.1794    1.3727593    116.28695 
    4450            6   -7931.5829    1.3727593    106.36897 
    4500            2   -7917.9764    1.3522846    78.670641 
    4550            2   -7918.7715    1.3522846    88.115772 
    4600            2   -7918.7048    1.3522846    88.115772 
    4650            2   -7918.3059    1.3522846    64.717174 
    4700            3   -7921.0468    1.3574033     75.77639 
    4750            2   -7918.1169    1.3522846    31.965938 
    4800            1   -7915.9122    1.3471659     93.92768 
    4850            2   -7918.0411    1.3522846    172.24782 
    4900            2   -7918.1503    1.3522846    80.656879 
    4950            2   -7917.5988    1.3522846    91.963002 
    5000            1   -7915.2417    1.3471659    41.678801 
    5050            2   -7917.4798    1.3522846    90.038754 
    5100            6   -7930.3935    1.3727593    77.485731 
    5150            4   -7925.5029    1.3625219    101.52594 
    5200            1   -7916.3099    1.3471659    153.94053 
    5250            4   -7923.2163    1.3625219    90.974733 
    5300            4   -7924.3327    1.3625219    124.05751 
    5350            1   -7915.8335    1.3471659    49.810641 
    5400            3   -7923.1668    1.3574033    74.238948 
    5450            3   -7921.1179    1.3574033    187.56399 
    5500            5     -7926.59    1.3676406    93.713806 
    5550            4   -7924.6221    1.3625219    138.43546 
    5600            3   -7921.0601    1.3574033     96.19625 
    5650            2   -7919.2587    1.3522846    60.581716 
    5700            4   -7925.6479    1.3625219    71.191403 
    5750            6   -7932.1639    1.3727593    80.417864 
    5800            6   -7932.2553    1.3727593    88.788649 
    5850            6   -7931.4677    1.3727593    99.141143 
    5900            5   -7930.0344    1.3676406    86.528316 
    5950            4   -7927.3196    1.3625219    80.878858 
    6000            5    -7929.281    1.3676406    61.590016 
    6050            3   -7923.9492    1.3574033    61.222877 
    6100            3   -7924.0151    1.3574033    61.222877 
    6150            1   -7916.0937    1.3471659    11.628234 
    6200            0   -7912.2666    1.3420473            0 
    6250            3   -7922.6149    1.3574033    84.121608 
    6300            1   -7915.4109    1.3471659    88.185929 
    6350            1   -7915.1086    1.3471659    11.231539 
    6400            2    -7916.817    1.3522846    32.255991 
    6450            4   -7924.7201    1.3625219    39.076778 
    6500            3   -7920.4968    1.3574033     42.62328 
    6550            1   -7916.3532    1.3471659    155.04575 
    6600            2   -7918.7899    1.3522846    119.11817 
    6650            3   -7922.0435    1.3574033    107.00997 
    6700            3    -7922.317    1.3574033    118.00864 
    6750            1   -7915.5452    1.3471659     97.20182 
    6800            2    -7918.232    1.3522846    94.536349 
    6850            1   -7915.8043    1.3471659    79.024429 
    6900            1   -7915.6168    1.3471659    79.024429 
    6950            0   -7912.2666    1.3420473            0 
    7000            2   -7917.1446    1.3522846    84.767467 
    7050            3   -7920.9568    1.3574033    104.86011 
    7100            5    -7928.715    1.3676406    139.68222 
    7150            6   -7932.1066    1.3727593    170.67724 
    7200            4   -7927.0135    1.3625219    192.14021 
    7250            3   -7923.8075    1.3574033     158.1473 
    7300            5   -7929.5691    1.3676406    144.23427 
    7350            3   -7922.4586    1.3574033       118.87 
    7400            3   -7921.6369    1.3574033    136.18922 
    7450            1   -7914.5434    1.3471659    72.167963 
    7500            1   -7913.4515    1.3471659    59.086429 
    7550            4   -7924.0508    1.3625219    52.403947 
    7600            0   -7912.2666    1.3420473            0 
    7650            3   -7921.3011    1.3574033    62.038645 
    7700            3   -7920.7776    1.3574033    53.217312 
    7750            3   -7922.0033    1.3574033    45.137262 
    7800            4   -7925.1374    1.3625219    68.652896 
    7850            1   -7914.6736    1.3471659    63.956121 
    7900            2    -7918.177    1.3522846    127.99425 
    7950            3   -7921.3613    1.3574033    121.50775 
    8000            3   -7922.4771    1.3574033    125.56009 
    8050            6   -7931.5027    1.3727593    84.511002 
    8100            1   -7915.7466    1.3471659    90.625007 
    8150            3   -7921.5712    1.3574033    54.951931 
    8200            5   -7928.7633    1.3676406    84.049463 
    8250            2   -7919.2255    1.3522846    73.963725 
    8300            5   -7927.2114    1.3676406     85.60273 
    8350            2   -7916.8838    1.3522846    80.275451 
    8400            1   -7913.9697    1.3471659    82.900606 
    8450            4   -7923.1519    1.3625219    97.168409 
    8500            4   -7923.9725    1.3625219     49.07315 
    8550            4   -7922.8736    1.3625219    80.763616 
    8600            1   -7915.2682    1.3471659    115.34239 
    8650            3   -7919.5473    1.3574033    100.20452 
    8700            4   -7925.3629    1.3625219    145.15791 
    8750            3   -7922.1422    1.3574033    88.511294 
    8800            2   -7917.2254    1.3522846    103.90592 
    8850            0   -7912.2666    1.3420473            0 
    8900            5    -7928.069    1.3676406    128.95266 
    8950            3   -7923.1485    1.3574033     153.5214 
    9000            2   -7918.4744    1.3522846    240.54033 
    9050            5   -7929.3861    1.3676406     139.6594 
    9100            2   -7916.8525    1.3522846    71.284599 
    9150            0   -7912.2666    1.3420473            0 
    9200            1   -7915.1021    1.3471659    57.095304 
    9250            2   -7917.3026    1.3522846    66.900825 
    9300            3   -7922.8011    1.3574033    125.38857 
    9350            5   -7926.5523    1.3676406    56.817634 
    9400            3   -7920.4995    1.3574033    63.600615 
    9450            2   -7916.4051    1.3522846    70.850442 
    9500            2   -7918.4344    1.3522846    34.910873 
    9550            0   -7912.2666    1.3420473            0 
    9600            0   -7912.2666    1.3420473            0 
    9650            1   -7912.8629    1.3471659    120.46019 
    9700            3   -7920.4643    1.3574033    208.80023 
    9750            3   -7921.7501    1.3574033    156.51683 
    9800            0   -7912.2666    1.3420473            0 
    9850            4   -7923.6371    1.3625219     57.69818 
    9900            0   -7912.2666    1.3420473            0 
    9950            3   -7921.4731    1.3574033    63.573986 
   10000            4   -7925.5066    1.3625219    55.183814 
Loop time of 485.773 on 1 procs for 10000 steps with 596 atoms

Performance: 1.779 ns/day, 13.494 hours/ns, 20.586 timesteps/s
99.8% CPU use with 1 MPI tasks x 1 OpenMP threads

MPI task timing breakdown:
Section |  min time  |  avg time  |  max time  |%varavg| %total
---------------------------------------------------------------
Pair    | 0.97121    | 0.97121    | 0.97121    |   0.0 |  0.20
Bond    | 0.0021911  | 0.0021911  | 0.0021911  |   0.0 |  0.00
Kspace  | 21.228     | 21.228     | 21.228     |   0.0 |  4.37
Neigh   | 45.592     | 45.592     | 45.592     |   0.0 |  9.39
Comm    | 33.586     | 33.586     | 33.586     |   0.0 |  6.91
Output  | 0.0062318  | 0.0062318  | 0.0062318  |   0.0 |  0.00
Modify  | 384.29     | 384.29     | 384.29     |   0.0 | 79.11
Other   |            | 0.09991    |            |       |  0.02

Nlocal:    596 ave 596 max 596 min
Histogram: 1 0 0 0 0 0 0 0 0 0
Nghost:    5560 ave 5560 max 5560 min
Histogram: 1 0 0 0 0 0 0 0 0 0
Neighs:    6045 ave 6045 max 6045 min
Histogram: 1 0 0 0 0 0 0 0 0 0

Total # of neighbors = 6045
Ave neighs/atom = 10.1426
Ave special neighs/atom = 12.5839
Neighbor list builds = 39327
Dangerous builds not checked
Total wall time: 0:08:05
