LAMMPS data file. CGCMM style. atom_style full generated by VMD/TopoTools v1.5 on Thu Nov 19 20:49:08 CET 2015
 584 atoms
 696 bonds

 5 atom types
 2 bond types
 
0.0000 24.2576 xlo xhi
0.0000 24.2576 ylo yhi
0.0000 24.2576 zlo zhi

 Masses

1 15.999400 # O FAU
2 28.085501 # Si FAU
3 0.000001 # dummy (sodalite)
4 12.001100 # C CO2
5 15.999400 # O CO2

 Atoms

1 1 2 0.000000 22.949631 3.039478 0.870605 # Si 
2 1 2 0.000000 1.307970 21.218124 23.386995 # Si 
3 1 2 0.000000 19.501171 3.024923 12.999405 # Si 
4 1 2 0.000000 4.756430 21.232677 11.258195 # Si 
5 1 2 0.000000 7.372370 15.168278 17.322596 # Si 
6 1 2 0.000000 16.885229 9.089323 6.935006 # Si 
7 1 2 0.000000 10.820830 15.153724 5.193795 # Si 
8 1 2 0.000000 13.436771 9.103877 19.063805 # Si 
9 1 2 0.000000 0.870605 22.949631 3.039478 # Si 
10 1 2 0.000000 23.386995 1.307970 21.218124 # Si 
11 1 2 0.000000 12.999405 19.501171 3.024923 # Si 
12 1 2 0.000000 11.258195 4.756430 21.232677 # Si 
13 1 2 0.000000 17.322596 7.372370 15.168278 # Si 
14 1 2 0.000000 6.935006 16.885229 9.089323 # Si 
15 1 2 0.000000 5.193795 10.820830 15.153724 # Si 
16 1 2 0.000000 19.063805 13.436771 9.103877 # Si 
17 1 2 0.000000 3.039478 0.870605 22.949631 # Si 
18 1 2 0.000000 21.218124 23.386995 1.307970 # Si 
19 1 2 0.000000 3.024923 12.999405 19.501171 # Si 
20 1 2 0.000000 21.232677 11.258195 4.756430 # Si 
21 1 2 0.000000 15.168278 17.322596 7.372370 # Si 
22 1 2 0.000000 9.089323 6.935006 16.885229 # Si 
23 1 2 0.000000 15.153724 5.193795 10.820830 # Si 
24 1 2 0.000000 9.103877 19.063805 13.436771 # Si 
25 1 2 0.000000 21.232677 4.756430 11.258195 # Si 
26 1 2 0.000000 3.024923 19.501171 12.999405 # Si 
27 1 2 0.000000 21.218124 1.307970 23.386995 # Si 
28 1 2 0.000000 3.039478 22.949631 0.870605 # Si 
29 1 2 0.000000 9.103877 13.436771 19.063805 # Si 
30 1 2 0.000000 15.153724 10.820830 5.193795 # Si 
31 1 2 0.000000 9.089323 16.885229 6.935006 # Si 
32 1 2 0.000000 15.168278 7.372370 17.322596 # Si 
33 1 2 0.000000 16.885229 6.935006 9.089323 # Si 
34 1 2 0.000000 7.372370 17.322596 15.168278 # Si 
35 1 2 0.000000 13.436771 19.063805 9.103877 # Si 
36 1 2 0.000000 10.820830 5.193795 15.153724 # Si 
37 1 2 0.000000 1.307970 23.386995 21.218124 # Si 
38 1 2 0.000000 22.949631 0.870605 3.039478 # Si 
39 1 2 0.000000 4.756430 11.258195 21.232677 # Si 
40 1 2 0.000000 19.501171 12.999405 3.024923 # Si 
41 1 2 0.000000 19.063805 9.103877 13.436771 # Si 
42 1 2 0.000000 5.193795 15.153724 10.820830 # Si 
43 1 2 0.000000 6.935006 9.089323 16.885229 # Si 
44 1 2 0.000000 17.322596 15.168278 7.372370 # Si 
45 1 2 0.000000 11.258195 21.232677 4.756430 # Si 
46 1 2 0.000000 12.999405 3.024923 19.501171 # Si 
47 1 2 0.000000 23.386995 21.218124 1.307970 # Si 
48 1 2 0.000000 0.870605 3.039478 22.949631 # Si 
49 1 2 0.000000 22.949631 15.168278 12.999405 # Si 
50 1 2 0.000000 1.307970 9.089323 11.258195 # Si 
51 1 2 0.000000 19.501171 15.153724 0.870605 # Si 
52 1 2 0.000000 4.756430 9.103877 23.386995 # Si 
53 1 2 0.000000 7.372370 3.039478 5.193795 # Si 
54 1 2 0.000000 16.885229 21.218124 19.063805 # Si 
55 1 2 0.000000 10.820830 3.024923 17.322596 # Si 
56 1 2 0.000000 13.436771 21.232677 6.935006 # Si 
57 1 2 0.000000 0.870605 10.820830 15.168278 # Si 
58 1 2 0.000000 23.386995 13.436771 9.089323 # Si 
59 1 2 0.000000 12.999405 7.372370 15.153724 # Si 
60 1 2 0.000000 11.258195 16.885229 9.103877 # Si 
61 1 2 0.000000 17.322596 19.501171 3.039478 # Si 
62 1 2 0.000000 6.935006 4.756430 21.218124 # Si 
63 1 2 0.000000 5.193795 22.949631 3.024923 # Si 
64 1 2 0.000000 19.063805 1.307970 21.232677 # Si 
65 1 2 0.000000 3.039478 12.999405 10.820830 # Si 
66 1 2 0.000000 21.218124 11.258195 13.436771 # Si 
67 1 2 0.000000 3.024923 0.870605 7.372370 # Si 
68 1 2 0.000000 21.232677 23.386995 16.885229 # Si 
69 1 2 0.000000 15.168278 5.193795 19.501171 # Si 
70 1 2 0.000000 9.089323 19.063805 4.756430 # Si 
71 1 2 0.000000 15.153724 17.322596 22.949631 # Si 
72 1 2 0.000000 9.103877 6.935006 1.307970 # Si 
73 1 2 0.000000 21.232677 16.885229 23.386995 # Si 
74 1 2 0.000000 3.024923 7.372370 0.870605 # Si 
75 1 2 0.000000 21.218124 13.436771 11.258195 # Si 
76 1 2 0.000000 3.039478 10.820830 12.999405 # Si 
77 1 2 0.000000 9.103877 1.307970 6.935006 # Si 
78 1 2 0.000000 15.153724 22.949631 17.322596 # Si 
79 1 2 0.000000 9.089323 4.756430 19.063805 # Si 
80 1 2 0.000000 15.168278 19.501171 5.193795 # Si 
81 1 2 0.000000 16.885229 19.063805 21.218124 # Si 
82 1 2 0.000000 7.372370 5.193795 3.039478 # Si 
83 1 2 0.000000 13.436771 6.935006 21.232677 # Si 
84 1 2 0.000000 10.820830 17.322596 3.024923 # Si 
85 1 2 0.000000 1.307970 11.258195 9.089323 # Si 
86 1 2 0.000000 22.949631 12.999405 15.168278 # Si 
87 1 2 0.000000 4.756430 23.386995 9.103877 # Si 
88 1 2 0.000000 19.501171 0.870605 15.153724 # Si 
89 1 2 0.000000 19.063805 21.232677 1.307970 # Si 
90 1 2 0.000000 5.193795 3.024923 22.949631 # Si 
91 1 2 0.000000 6.935006 21.218124 4.756430 # Si 
92 1 2 0.000000 17.322596 3.039478 19.501171 # Si 
93 1 2 0.000000 11.258195 9.103877 16.885229 # Si 
94 1 2 0.000000 12.999405 15.153724 7.372370 # Si 
95 1 2 0.000000 23.386995 9.089323 13.436771 # Si 
96 1 2 0.000000 0.870605 15.168278 10.820830 # Si 
97 1 2 0.000000 10.820830 3.039478 12.999405 # Si 
98 1 2 0.000000 13.436771 21.218124 11.258195 # Si 
99 1 2 0.000000 7.372370 3.024923 0.870605 # Si 
100 1 2 0.000000 16.885229 21.232677 23.386995 # Si 
101 1 2 0.000000 19.501171 15.168278 5.193795 # Si 
102 1 2 0.000000 4.756430 9.089323 19.063805 # Si 
103 1 2 0.000000 22.949631 15.153724 17.322596 # Si 
104 1 2 0.000000 1.307970 9.103877 6.935006 # Si 
105 1 2 0.000000 12.999405 22.949631 15.168278 # Si 
106 1 2 0.000000 11.258195 1.307970 9.089323 # Si 
107 1 2 0.000000 0.870605 19.501171 15.153724 # Si 
108 1 2 0.000000 23.386995 4.756430 9.103877 # Si 
109 1 2 0.000000 5.193795 7.372370 3.039478 # Si 
110 1 2 0.000000 19.063805 16.885229 21.218124 # Si 
111 1 2 0.000000 17.322596 10.820830 3.024923 # Si 
112 1 2 0.000000 6.935006 13.436771 21.232677 # Si 
113 1 2 0.000000 15.168278 0.870605 10.820830 # Si 
114 1 2 0.000000 9.089323 23.386995 13.436771 # Si 
115 1 2 0.000000 15.153724 12.999405 7.372370 # Si 
116 1 2 0.000000 9.103877 11.258195 16.885229 # Si 
117 1 2 0.000000 3.039478 17.322596 19.501171 # Si 
118 1 2 0.000000 21.218124 6.935006 4.756430 # Si 
119 1 2 0.000000 3.024923 5.193795 22.949631 # Si 
120 1 2 0.000000 21.232677 19.063805 1.307970 # Si 
121 1 2 0.000000 9.103877 4.756430 23.386995 # Si 
122 1 2 0.000000 15.153724 19.501171 0.870605 # Si 
123 1 2 0.000000 9.089323 1.307970 11.258195 # Si 
124 1 2 0.000000 15.168278 22.949631 12.999405 # Si 
125 1 2 0.000000 21.232677 13.436771 6.935006 # Si 
126 1 2 0.000000 3.024923 10.820830 17.322596 # Si 
127 1 2 0.000000 21.218124 16.885229 19.063805 # Si 
128 1 2 0.000000 3.039478 7.372370 5.193795 # Si 
129 1 2 0.000000 4.756430 6.935006 21.218124 # Si 
130 1 2 0.000000 19.501171 17.322596 3.039478 # Si 
131 1 2 0.000000 1.307970 19.063805 21.232677 # Si 
132 1 2 0.000000 22.949631 5.193795 3.024923 # Si 
133 1 2 0.000000 13.436771 23.386995 9.089323 # Si 
134 1 2 0.000000 10.820830 0.870605 15.168278 # Si 
135 1 2 0.000000 16.885229 11.258195 9.103877 # Si 
136 1 2 0.000000 7.372370 12.999405 15.153724 # Si 
137 1 2 0.000000 6.935006 9.103877 1.307970 # Si 
138 1 2 0.000000 17.322596 15.153724 22.949631 # Si 
139 1 2 0.000000 19.063805 9.089323 4.756430 # Si 
140 1 2 0.000000 5.193795 15.168278 19.501171 # Si 
141 1 2 0.000000 23.386995 21.232677 16.885229 # Si 
142 1 2 0.000000 0.870605 3.024923 7.372370 # Si 
143 1 2 0.000000 11.258195 21.218124 13.436771 # Si 
144 1 2 0.000000 12.999405 3.039478 10.820830 # Si 
145 1 2 0.000000 10.820830 15.168278 0.870605 # Si 
146 1 2 0.000000 13.436771 9.089323 23.386995 # Si 
147 1 2 0.000000 7.372370 15.153724 12.999405 # Si 
148 1 2 0.000000 16.885229 9.103877 11.258195 # Si 
149 1 2 0.000000 19.501171 3.039478 17.322596 # Si 
150 1 2 0.000000 4.756430 21.218124 6.935006 # Si 
151 1 2 0.000000 22.949631 3.024923 5.193795 # Si 
152 1 2 0.000000 1.307970 21.232677 19.063805 # Si 
153 1 2 0.000000 12.999405 10.820830 3.039478 # Si 
154 1 2 0.000000 11.258195 13.436771 21.218124 # Si 
155 1 2 0.000000 0.870605 7.372370 3.024923 # Si 
156 1 2 0.000000 23.386995 16.885229 21.232677 # Si 
157 1 2 0.000000 5.193795 19.501171 15.168278 # Si 
158 1 2 0.000000 19.063805 4.756430 9.089323 # Si 
159 1 2 0.000000 17.322596 22.949631 15.153724 # Si 
160 1 2 0.000000 6.935006 1.307970 9.103877 # Si 
161 1 2 0.000000 15.168278 12.999405 22.949631 # Si 
162 1 2 0.000000 9.089323 11.258195 1.307970 # Si 
163 1 2 0.000000 15.153724 0.870605 19.501171 # Si 
164 1 2 0.000000 9.103877 23.386995 4.756430 # Si 
165 1 2 0.000000 3.039478 5.193795 7.372370 # Si 
166 1 2 0.000000 21.218124 19.063805 16.885229 # Si 
167 1 2 0.000000 3.024923 17.322596 10.820830 # Si 
168 1 2 0.000000 21.232677 6.935006 13.436771 # Si 
169 1 2 0.000000 9.103877 16.885229 11.258195 # Si 
170 1 2 0.000000 15.153724 7.372370 12.999405 # Si 
171 1 2 0.000000 9.089323 13.436771 23.386995 # Si 
172 1 2 0.000000 15.168278 10.820830 0.870605 # Si 
173 1 2 0.000000 21.232677 1.307970 19.063805 # Si 
174 1 2 0.000000 3.024923 22.949631 5.193795 # Si 
175 1 2 0.000000 21.218124 4.756430 6.935006 # Si 
176 1 2 0.000000 3.039478 19.501171 17.322596 # Si 
177 1 2 0.000000 4.756430 19.063805 9.089323 # Si 
178 1 2 0.000000 19.501171 5.193795 15.168278 # Si 
179 1 2 0.000000 1.307970 6.935006 9.103877 # Si 
180 1 2 0.000000 22.949631 17.322596 15.153724 # Si 
181 1 2 0.000000 13.436771 11.258195 21.218124 # Si 
182 1 2 0.000000 10.820830 12.999405 3.039478 # Si 
183 1 2 0.000000 16.885229 23.386995 21.232677 # Si 
184 1 2 0.000000 7.372370 0.870605 3.024923 # Si 
185 1 2 0.000000 6.935006 21.232677 13.436771 # Si 
186 1 2 0.000000 17.322596 3.024923 10.820830 # Si 
187 1 2 0.000000 19.063805 21.218124 16.885229 # Si 
188 1 2 0.000000 5.193795 3.039478 7.372370 # Si 
189 1 2 0.000000 23.386995 9.103877 4.756430 # Si 
190 1 2 0.000000 0.870605 15.153724 19.501171 # Si 
191 1 2 0.000000 11.258195 9.089323 1.307970 # Si 
192 1 2 0.000000 12.999405 15.168278 22.949631 # Si 
193 1 1 0.000000 0.000000 21.680716 2.576885 # O 
194 1 1 0.000000 0.000000 2.576885 21.680716 # O 
195 1 1 0.000000 18.193201 8.641285 14.705686 # O 
196 1 1 0.000000 6.064400 15.616315 9.551916 # O 
197 1 1 0.000000 6.064400 9.551916 15.616315 # O 
198 1 1 0.000000 18.193201 14.705686 8.641285 # O 
199 1 1 0.000000 12.128800 20.770086 3.487515 # O 
200 1 1 0.000000 12.128800 3.487515 20.770086 # O 
201 1 1 0.000000 2.576885 0.000000 21.680716 # O 
202 1 1 0.000000 21.680716 0.000000 2.576885 # O 
203 1 1 0.000000 14.705686 18.193201 8.641285 # O 
204 1 1 0.000000 9.551916 6.064400 15.616315 # O 
205 1 1 0.000000 15.616315 6.064400 9.551916 # O 
206 1 1 0.000000 8.641285 18.193201 14.705686 # O 
207 1 1 0.000000 3.487515 12.128800 20.770086 # O 
208 1 1 0.000000 20.770086 12.128800 3.487515 # O 
209 1 1 0.000000 21.680716 2.576885 0.000000 # O 
210 1 1 0.000000 2.576885 21.680716 0.000000 # O 
211 1 1 0.000000 8.641285 14.705686 18.193201 # O 
212 1 1 0.000000 15.616315 9.551916 6.064400 # O 
213 1 1 0.000000 9.551916 15.616315 6.064400 # O 
214 1 1 0.000000 14.705686 8.641285 18.193201 # O 
215 1 1 0.000000 20.770086 3.487515 12.128800 # O 
216 1 1 0.000000 3.487515 20.770086 12.128800 # O 
217 1 1 0.000000 0.000000 9.551916 14.705686 # O 
218 1 1 0.000000 0.000000 14.705686 9.551916 # O 
219 1 1 0.000000 18.193201 20.770086 2.576885 # O 
220 1 1 0.000000 6.064400 3.487515 21.680716 # O 
221 1 1 0.000000 6.064400 21.680716 3.487515 # O 
222 1 1 0.000000 18.193201 2.576885 20.770086 # O 
223 1 1 0.000000 12.128800 8.641285 15.616315 # O 
224 1 1 0.000000 12.128800 15.616315 8.641285 # O 
225 1 1 0.000000 2.576885 12.128800 9.551916 # O 
226 1 1 0.000000 21.680716 12.128800 14.705686 # O 
227 1 1 0.000000 14.705686 6.064400 20.770086 # O 
228 1 1 0.000000 9.551916 18.193201 3.487515 # O 
229 1 1 0.000000 15.616315 18.193201 21.680716 # O 
230 1 1 0.000000 8.641285 6.064400 2.576885 # O 
231 1 1 0.000000 3.487515 0.000000 8.641285 # O 
232 1 1 0.000000 20.770086 0.000000 15.616315 # O 
233 1 1 0.000000 21.680716 14.705686 12.128800 # O 
234 1 1 0.000000 2.576885 9.551916 12.128800 # O 
235 1 1 0.000000 8.641285 2.576885 6.064400 # O 
236 1 1 0.000000 15.616315 21.680716 18.193201 # O 
237 1 1 0.000000 9.551916 3.487515 18.193201 # O 
238 1 1 0.000000 14.705686 20.770086 6.064400 # O 
239 1 1 0.000000 20.770086 15.616315 0.000000 # O 
240 1 1 0.000000 3.487515 8.641285 0.000000 # O 
241 1 1 0.000000 12.128800 21.680716 14.705686 # O 
242 1 1 0.000000 12.128800 2.576885 9.551916 # O 
243 1 1 0.000000 6.064400 8.641285 2.576885 # O 
244 1 1 0.000000 18.193201 15.616315 21.680716 # O 
245 1 1 0.000000 18.193201 9.551916 3.487515 # O 
246 1 1 0.000000 6.064400 14.705686 20.770086 # O 
247 1 1 0.000000 0.000000 20.770086 15.616315 # O 
248 1 1 0.000000 0.000000 3.487515 8.641285 # O 
249 1 1 0.000000 14.705686 0.000000 9.551916 # O 
250 1 1 0.000000 9.551916 0.000000 14.705686 # O 
251 1 1 0.000000 2.576885 18.193201 20.770086 # O 
252 1 1 0.000000 21.680716 6.064400 3.487515 # O 
253 1 1 0.000000 3.487515 6.064400 21.680716 # O 
254 1 1 0.000000 20.770086 18.193201 2.576885 # O 
255 1 1 0.000000 15.616315 12.128800 8.641285 # O 
256 1 1 0.000000 8.641285 12.128800 15.616315 # O 
257 1 1 0.000000 9.551916 2.576885 12.128800 # O 
258 1 1 0.000000 14.705686 21.680716 12.128800 # O 
259 1 1 0.000000 20.770086 14.705686 6.064400 # O 
260 1 1 0.000000 3.487515 9.551916 18.193201 # O 
261 1 1 0.000000 21.680716 15.616315 18.193201 # O 
262 1 1 0.000000 2.576885 8.641285 6.064400 # O 
263 1 1 0.000000 8.641285 3.487515 0.000000 # O 
264 1 1 0.000000 15.616315 20.770086 0.000000 # O 
265 1 1 0.000000 12.128800 9.551916 2.576885 # O 
266 1 1 0.000000 12.128800 14.705686 21.680716 # O 
267 1 1 0.000000 6.064400 20.770086 14.705686 # O 
268 1 1 0.000000 18.193201 3.487515 9.551916 # O 
269 1 1 0.000000 18.193201 21.680716 15.616315 # O 
270 1 1 0.000000 6.064400 2.576885 8.641285 # O 
271 1 1 0.000000 0.000000 8.641285 3.487515 # O 
272 1 1 0.000000 0.000000 15.616315 20.770086 # O 
273 1 1 0.000000 14.705686 12.128800 21.680716 # O 
274 1 1 0.000000 9.551916 12.128800 2.576885 # O 
275 1 1 0.000000 2.576885 6.064400 8.641285 # O 
276 1 1 0.000000 21.680716 18.193201 15.616315 # O 
277 1 1 0.000000 3.487515 18.193201 9.551916 # O 
278 1 1 0.000000 20.770086 6.064400 14.705686 # O 
279 1 1 0.000000 15.616315 0.000000 20.770086 # O 
280 1 1 0.000000 8.641285 0.000000 3.487515 # O 
281 1 1 0.000000 9.551916 14.705686 0.000000 # O 
282 1 1 0.000000 14.705686 9.551916 0.000000 # O 
283 1 1 0.000000 20.770086 2.576885 18.193201 # O 
284 1 1 0.000000 3.487515 21.680716 6.064400 # O 
285 1 1 0.000000 21.680716 3.487515 6.064400 # O 
286 1 1 0.000000 2.576885 20.770086 18.193201 # O 
287 1 1 0.000000 8.641285 15.616315 12.128800 # O 
288 1 1 0.000000 15.616315 8.641285 12.128800 # O 
289 1 1 0.000000 24.179249 24.179249 3.412074 # O 
290 1 1 0.000000 0.078352 0.078352 20.845528 # O 
291 1 1 0.000000 18.271551 6.142752 15.540874 # O 
292 1 1 0.000000 5.986048 18.114849 8.716726 # O 
293 1 1 0.000000 6.142752 12.050448 14.781127 # O 
294 1 1 0.000000 18.114849 12.207151 9.476474 # O 
295 1 1 0.000000 12.050448 18.271551 2.652326 # O 
296 1 1 0.000000 12.207151 5.986048 21.605274 # O 
297 1 1 0.000000 3.412074 24.179249 24.179249 # O 
298 1 1 0.000000 20.845528 0.078352 0.078352 # O 
299 1 1 0.000000 15.540874 18.271551 6.142752 # O 
300 1 1 0.000000 8.716726 5.986048 18.114849 # O 
301 1 1 0.000000 14.781127 6.142752 12.050448 # O 
302 1 1 0.000000 9.476474 18.114849 12.207151 # O 
303 1 1 0.000000 2.652326 12.050448 18.271551 # O 
304 1 1 0.000000 21.605274 12.207151 5.986048 # O 
305 1 1 0.000000 24.179249 3.412074 24.179249 # O 
306 1 1 0.000000 0.078352 20.845528 0.078352 # O 
307 1 1 0.000000 6.142752 15.540874 18.271551 # O 
308 1 1 0.000000 18.114849 8.716726 5.986048 # O 
309 1 1 0.000000 12.050448 14.781127 6.142752 # O 
310 1 1 0.000000 12.207151 9.476474 18.114849 # O 
311 1 1 0.000000 18.271551 2.652326 12.050448 # O 
312 1 1 0.000000 5.986048 21.605274 12.207151 # O 
313 1 1 0.000000 18.114849 5.986048 8.716726 # O 
314 1 1 0.000000 6.142752 18.271551 15.540874 # O 
315 1 1 0.000000 5.986048 12.207151 21.605274 # O 
316 1 1 0.000000 18.271551 12.050448 2.652326 # O 
317 1 1 0.000000 12.207151 18.114849 9.476474 # O 
318 1 1 0.000000 12.050448 6.142752 14.781127 # O 
319 1 1 0.000000 18.114849 9.476474 12.207151 # O 
320 1 1 0.000000 6.142752 14.781127 12.050448 # O 
321 1 1 0.000000 12.207151 21.605274 5.986048 # O 
322 1 1 0.000000 12.050448 2.652326 18.271551 # O 
323 1 1 0.000000 5.986048 8.716726 18.114849 # O 
324 1 1 0.000000 18.271551 15.540874 6.142752 # O 
325 1 1 0.000000 21.605274 5.986048 12.207151 # O 
326 1 1 0.000000 2.652326 18.271551 12.050448 # O 
327 1 1 0.000000 9.476474 12.207151 18.114849 # O 
328 1 1 0.000000 14.781127 12.050448 6.142752 # O 
329 1 1 0.000000 8.716726 18.114849 5.986048 # O 
330 1 1 0.000000 15.540874 6.142752 18.271551 # O 
331 1 1 0.000000 24.179249 12.050448 15.540874 # O 
332 1 1 0.000000 0.078352 12.207151 8.716726 # O 
333 1 1 0.000000 18.271551 18.271551 3.412074 # O 
334 1 1 0.000000 5.986048 5.986048 20.845528 # O 
335 1 1 0.000000 6.142752 24.179249 2.652326 # O 
336 1 1 0.000000 18.114849 0.078352 21.605274 # O 
337 1 1 0.000000 3.412074 12.050448 12.050448 # O 
338 1 1 0.000000 20.845528 12.207151 12.207151 # O 
339 1 1 0.000000 14.781127 18.271551 24.179249 # O 
340 1 1 0.000000 9.476474 5.986048 0.078352 # O 
341 1 1 0.000000 2.652326 24.179249 6.142752 # O 
342 1 1 0.000000 21.605274 0.078352 18.114849 # O 
343 1 1 0.000000 24.179249 15.540874 12.050448 # O 
344 1 1 0.000000 0.078352 8.716726 12.207151 # O 
345 1 1 0.000000 6.142752 3.412074 6.142752 # O 
346 1 1 0.000000 18.114849 20.845528 18.114849 # O 
347 1 1 0.000000 18.271551 14.781127 24.179249 # O 
348 1 1 0.000000 5.986048 9.476474 0.078352 # O 
349 1 1 0.000000 18.114849 18.114849 20.845528 # O 
350 1 1 0.000000 6.142752 6.142752 3.412074 # O 
351 1 1 0.000000 5.986048 0.078352 9.476474 # O 
352 1 1 0.000000 18.271551 24.179249 14.781127 # O 
353 1 1 0.000000 18.114849 21.605274 0.078352 # O 
354 1 1 0.000000 6.142752 2.652326 24.179249 # O 
355 1 1 0.000000 5.986048 20.845528 5.986048 # O 
356 1 1 0.000000 18.271551 3.412074 18.271551 # O 
357 1 1 0.000000 21.605274 18.114849 0.078352 # O 
358 1 1 0.000000 2.652326 6.142752 24.179249 # O 
359 1 1 0.000000 9.476474 0.078352 5.986048 # O 
360 1 1 0.000000 14.781127 24.179249 18.271551 # O 
361 1 1 0.000000 12.050448 24.179249 15.540874 # O 
362 1 1 0.000000 12.207151 0.078352 8.716726 # O 
363 1 1 0.000000 24.179249 18.271551 14.781127 # O 
364 1 1 0.000000 0.078352 5.986048 9.476474 # O 
365 1 1 0.000000 15.540874 24.179249 12.050448 # O 
366 1 1 0.000000 8.716726 0.078352 12.207151 # O 
367 1 1 0.000000 3.412074 18.271551 18.271551 # O 
368 1 1 0.000000 20.845528 5.986048 5.986048 # O 
369 1 1 0.000000 12.050448 3.412074 12.050448 # O 
370 1 1 0.000000 12.207151 20.845528 12.207151 # O 
371 1 1 0.000000 24.179249 14.781127 18.271551 # O 
372 1 1 0.000000 0.078352 9.476474 5.986048 # O 
373 1 1 0.000000 0.078352 18.114849 21.605274 # O 
374 1 1 0.000000 24.179249 6.142752 2.652326 # O 
375 1 1 0.000000 0.078352 21.605274 18.114849 # O 
376 1 1 0.000000 24.179249 2.652326 6.142752 # O 
377 1 1 0.000000 20.845528 18.114849 18.114849 # O 
378 1 1 0.000000 3.412074 6.142752 6.142752 # O 
379 1 1 0.000000 12.050448 12.050448 3.412074 # O 
380 1 1 0.000000 12.207151 12.207151 20.845528 # O 
381 1 1 0.000000 15.540874 12.050448 24.179249 # O 
382 1 1 0.000000 8.716726 12.207151 0.078352 # O 
383 1 1 0.000000 12.050448 15.540874 24.179249 # O 
384 1 1 0.000000 12.207151 8.716726 0.078352 # O 
385 1 1 0.000000 1.836300 1.836300 23.389906 # O 
386 1 1 0.000000 22.421301 22.421301 0.867694 # O 
387 1 1 0.000000 16.356901 4.228100 11.261106 # O 
388 1 1 0.000000 7.900700 20.029501 12.996494 # O 
389 1 1 0.000000 4.228100 13.965100 19.060894 # O 
390 1 1 0.000000 20.029501 10.292500 5.196706 # O 
391 1 1 0.000000 13.965100 16.356901 6.932095 # O 
392 1 1 0.000000 10.292500 7.900700 17.325506 # O 
393 1 1 0.000000 23.389906 1.836300 1.836300 # O 
394 1 1 0.000000 0.867694 22.421301 22.421301 # O 
395 1 1 0.000000 11.261106 16.356901 4.228100 # O 
396 1 1 0.000000 12.996494 7.900700 20.029501 # O 
397 1 1 0.000000 19.060894 4.228100 13.965100 # O 
398 1 1 0.000000 5.196706 20.029501 10.292500 # O 
399 1 1 0.000000 6.932095 13.965100 16.356901 # O 
400 1 1 0.000000 17.325506 10.292500 7.900700 # O 
401 1 1 0.000000 1.836300 23.389906 1.836300 # O 
402 1 1 0.000000 22.421301 0.867694 22.421301 # O 
403 1 1 0.000000 4.228100 11.261106 16.356901 # O 
404 1 1 0.000000 20.029501 12.996494 7.900700 # O 
405 1 1 0.000000 13.965100 19.060894 4.228100 # O 
406 1 1 0.000000 10.292500 5.196706 20.029501 # O 
407 1 1 0.000000 16.356901 6.932095 13.965100 # O 
408 1 1 0.000000 7.900700 17.325506 10.292500 # O 
409 1 1 0.000000 20.029501 7.900700 12.996494 # O 
410 1 1 0.000000 4.228100 16.356901 11.261106 # O 
411 1 1 0.000000 7.900700 10.292500 17.325506 # O 
412 1 1 0.000000 16.356901 13.965100 6.932095 # O 
413 1 1 0.000000 10.292500 20.029501 5.196706 # O 
414 1 1 0.000000 13.965100 4.228100 19.060894 # O 
415 1 1 0.000000 20.029501 5.196706 10.292500 # O 
416 1 1 0.000000 4.228100 19.060894 13.965100 # O 
417 1 1 0.000000 10.292500 17.325506 7.900700 # O 
418 1 1 0.000000 13.965100 6.932095 16.356901 # O 
419 1 1 0.000000 7.900700 12.996494 20.029501 # O 
420 1 1 0.000000 16.356901 11.261106 4.228100 # O 
421 1 1 0.000000 17.325506 7.900700 10.292500 # O 
422 1 1 0.000000 6.932095 16.356901 13.965100 # O 
423 1 1 0.000000 5.196706 10.292500 20.029501 # O 
424 1 1 0.000000 19.060894 13.965100 4.228100 # O 
425 1 1 0.000000 12.996494 20.029501 7.900700 # O 
426 1 1 0.000000 11.261106 4.228100 16.356901 # O 
427 1 1 0.000000 1.836300 13.965100 11.261106 # O 
428 1 1 0.000000 22.421301 10.292500 12.996494 # O 
429 1 1 0.000000 16.356901 16.356901 23.389906 # O 
430 1 1 0.000000 7.900700 7.900700 0.867694 # O 
431 1 1 0.000000 4.228100 1.836300 6.932095 # O 
432 1 1 0.000000 20.029501 22.421301 17.325506 # O 
433 1 1 0.000000 23.389906 13.965100 13.965100 # O 
434 1 1 0.000000 0.867694 10.292500 10.292500 # O 
435 1 1 0.000000 19.060894 16.356901 1.836300 # O 
436 1 1 0.000000 5.196706 7.900700 22.421301 # O 
437 1 1 0.000000 6.932095 1.836300 4.228100 # O 
438 1 1 0.000000 17.325506 22.421301 20.029501 # O 
439 1 1 0.000000 1.836300 11.261106 13.965100 # O 
440 1 1 0.000000 22.421301 12.996494 10.292500 # O 
441 1 1 0.000000 4.228100 23.389906 4.228100 # O 
442 1 1 0.000000 20.029501 0.867694 20.029501 # O 
443 1 1 0.000000 16.356901 19.060894 1.836300 # O 
444 1 1 0.000000 7.900700 5.196706 22.421301 # O 
445 1 1 0.000000 20.029501 20.029501 0.867694 # O 
446 1 1 0.000000 4.228100 4.228100 23.389906 # O 
447 1 1 0.000000 7.900700 22.421301 5.196706 # O 
448 1 1 0.000000 16.356901 1.836300 19.060894 # O 
449 1 1 0.000000 20.029501 17.325506 22.421301 # O 
450 1 1 0.000000 4.228100 6.932095 1.836300 # O 
451 1 1 0.000000 7.900700 0.867694 7.900700 # O 
452 1 1 0.000000 16.356901 23.389906 16.356901 # O 
453 1 1 0.000000 17.325506 20.029501 22.421301 # O 
454 1 1 0.000000 6.932095 4.228100 1.836300 # O 
455 1 1 0.000000 5.196706 22.421301 7.900700 # O 
456 1 1 0.000000 19.060894 1.836300 16.356901 # O 
457 1 1 0.000000 13.965100 1.836300 11.261106 # O 
458 1 1 0.000000 10.292500 22.421301 12.996494 # O 
459 1 1 0.000000 1.836300 16.356901 19.060894 # O 
460 1 1 0.000000 22.421301 7.900700 5.196706 # O 
461 1 1 0.000000 11.261106 1.836300 13.965100 # O 
462 1 1 0.000000 12.996494 22.421301 10.292500 # O 
463 1 1 0.000000 23.389906 16.356901 16.356901 # O 
464 1 1 0.000000 0.867694 7.900700 7.900700 # O 
465 1 1 0.000000 13.965100 23.389906 13.965100 # O 
466 1 1 0.000000 10.292500 0.867694 10.292500 # O 
467 1 1 0.000000 1.836300 19.060894 16.356901 # O 
468 1 1 0.000000 22.421301 5.196706 7.900700 # O 
469 1 1 0.000000 22.421301 20.029501 17.325506 # O 
470 1 1 0.000000 1.836300 4.228100 6.932095 # O 
471 1 1 0.000000 22.421301 17.325506 20.029501 # O 
472 1 1 0.000000 1.836300 6.932095 4.228100 # O 
473 1 1 0.000000 0.867694 20.029501 20.029501 # O 
474 1 1 0.000000 23.389906 4.228100 4.228100 # O 
475 1 1 0.000000 13.965100 13.965100 23.389906 # O 
476 1 1 0.000000 10.292500 10.292500 0.867694 # O 
477 1 1 0.000000 11.261106 13.965100 1.836300 # O 
478 1 1 0.000000 12.996494 10.292500 22.421301 # O 
479 1 1 0.000000 13.965100 11.261106 1.836300 # O 
480 1 1 0.000000 10.292500 12.996494 22.421301 # O 
481 1 1 0.000000 1.713314 1.713314 7.790329 # O 
482 1 1 0.000000 22.544287 22.544287 16.467272 # O 
483 1 1 0.000000 16.479885 4.351086 19.919128 # O 
484 1 1 0.000000 7.777715 19.906515 4.338472 # O 
485 1 1 0.000000 4.351086 13.842115 10.402872 # O 
486 1 1 0.000000 19.906515 10.415485 13.854729 # O 
487 1 1 0.000000 13.842115 16.479885 22.531672 # O 
488 1 1 0.000000 10.415485 7.777715 1.725930 # O 
489 1 1 0.000000 7.790329 1.713314 1.713314 # O 
490 1 1 0.000000 16.467272 22.544287 22.544287 # O 
491 1 1 0.000000 19.919128 16.479885 4.351086 # O 
492 1 1 0.000000 4.338472 7.777715 19.906515 # O 
493 1 1 0.000000 10.402872 4.351086 13.842115 # O 
494 1 1 0.000000 13.854729 19.906515 10.415485 # O 
495 1 1 0.000000 22.531672 13.842115 16.479885 # O 
496 1 1 0.000000 1.725930 10.415485 7.777715 # O 
497 1 1 0.000000 1.713314 7.790329 1.713314 # O 
498 1 1 0.000000 22.544287 16.467272 22.544287 # O 
499 1 1 0.000000 4.351086 19.919128 16.479885 # O 
500 1 1 0.000000 19.906515 4.338472 7.777715 # O 
501 1 1 0.000000 13.842115 10.402872 4.351086 # O 
502 1 1 0.000000 10.415485 13.854729 19.906515 # O 
503 1 1 0.000000 16.479885 22.531672 13.842115 # O 
504 1 1 0.000000 7.777715 1.725930 10.415485 # O 
505 1 1 0.000000 19.906515 7.777715 4.338472 # O 
506 1 1 0.000000 4.351086 16.479885 19.919128 # O 
507 1 1 0.000000 7.777715 10.415485 1.725930 # O 
508 1 1 0.000000 16.479885 13.842115 22.531672 # O 
509 1 1 0.000000 10.415485 19.906515 13.854729 # O 
510 1 1 0.000000 13.842115 4.351086 10.402872 # O 
511 1 1 0.000000 19.906515 13.854729 10.415485 # O 
512 1 1 0.000000 4.351086 10.402872 13.842115 # O 
513 1 1 0.000000 10.415485 1.725930 7.777715 # O 
514 1 1 0.000000 13.842115 22.531672 16.479885 # O 
515 1 1 0.000000 7.777715 4.338472 19.906515 # O 
516 1 1 0.000000 16.479885 19.919128 4.351086 # O 
517 1 1 0.000000 1.725930 7.777715 10.415485 # O 
518 1 1 0.000000 22.531672 16.479885 13.842115 # O 
519 1 1 0.000000 13.854729 10.415485 19.906515 # O 
520 1 1 0.000000 10.402872 13.842115 4.351086 # O 
521 1 1 0.000000 4.338472 19.906515 7.777715 # O 
522 1 1 0.000000 19.919128 4.351086 16.479885 # O 
523 1 1 0.000000 1.713314 13.842115 19.919128 # O 
524 1 1 0.000000 22.544287 10.415485 4.338472 # O 
525 1 1 0.000000 16.479885 16.479885 7.790329 # O 
526 1 1 0.000000 7.777715 7.777715 16.467272 # O 
527 1 1 0.000000 4.351086 1.713314 22.531672 # O 
528 1 1 0.000000 19.906515 22.544287 1.725930 # O 
529 1 1 0.000000 7.790329 13.842115 13.842115 # O 
530 1 1 0.000000 16.467272 10.415485 10.415485 # O 
531 1 1 0.000000 10.402872 16.479885 1.713314 # O 
532 1 1 0.000000 13.854729 7.777715 22.544287 # O 
533 1 1 0.000000 22.531672 1.713314 4.351086 # O 
534 1 1 0.000000 1.725930 22.544287 19.906515 # O 
535 1 1 0.000000 1.713314 19.919128 13.842115 # O 
536 1 1 0.000000 22.544287 4.338472 10.415485 # O 
537 1 1 0.000000 4.351086 7.790329 4.351086 # O 
538 1 1 0.000000 19.906515 16.467272 19.906515 # O 
539 1 1 0.000000 16.479885 10.402872 1.713314 # O 
540 1 1 0.000000 7.777715 13.854729 22.544287 # O 
541 1 1 0.000000 19.906515 19.906515 16.467272 # O 
542 1 1 0.000000 4.351086 4.351086 7.790329 # O 
543 1 1 0.000000 7.777715 22.544287 13.854729 # O 
544 1 1 0.000000 16.479885 1.713314 10.402872 # O 
545 1 1 0.000000 19.906515 1.725930 22.544287 # O 
546 1 1 0.000000 4.351086 22.531672 1.713314 # O 
547 1 1 0.000000 7.777715 16.467272 7.777715 # O 
548 1 1 0.000000 16.479885 7.790329 16.479885 # O 
549 1 1 0.000000 1.725930 19.906515 22.544287 # O 
550 1 1 0.000000 22.531672 4.351086 1.713314 # O 
551 1 1 0.000000 13.854729 22.544287 7.777715 # O 
552 1 1 0.000000 10.402872 1.713314 16.479885 # O 
553 1 1 0.000000 13.842115 1.713314 19.919128 # O 
554 1 1 0.000000 10.415485 22.544287 4.338472 # O 
555 1 1 0.000000 1.713314 16.479885 10.402872 # O 
556 1 1 0.000000 22.544287 7.777715 13.854729 # O 
557 1 1 0.000000 19.919128 1.713314 13.842115 # O 
558 1 1 0.000000 4.338472 22.544287 10.415485 # O 
559 1 1 0.000000 7.790329 16.479885 16.479885 # O 
560 1 1 0.000000 16.467272 7.777715 7.777715 # O 
561 1 1 0.000000 13.842115 7.790329 13.842115 # O 
562 1 1 0.000000 10.415485 16.467272 10.415485 # O 
563 1 1 0.000000 1.713314 10.402872 16.479885 # O 
564 1 1 0.000000 22.544287 13.854729 7.777715 # O 
565 1 1 0.000000 22.544287 19.906515 1.725930 # O 
566 1 1 0.000000 1.713314 4.351086 22.531672 # O 
567 1 1 0.000000 22.544287 1.725930 19.906515 # O 
568 1 1 0.000000 1.713314 22.531672 4.351086 # O 
569 1 1 0.000000 16.467272 19.906515 19.906515 # O 
570 1 1 0.000000 7.790329 4.351086 4.351086 # O 
571 1 1 0.000000 13.842115 13.842115 7.790329 # O 
572 1 1 0.000000 10.415485 10.415485 16.467272 # O 
573 1 1 0.000000 19.919128 13.842115 1.713314 # O 
574 1 1 0.000000 4.338472 10.415485 22.544287 # O 
575 1 1 0.000000 13.842115 19.919128 1.713314 # O 
576 1 1 0.000000 10.415485 4.338472 22.544287 # O 
577 1 3 0.000000 3.02492 15.16100 15.16100 
578 1 3 0.000000 9.09660 9.08932 21.22540 
579 1 3 0.000000 15.16100 3.03948 15.16100 
580 1 3 0.000000 21.22540 9.08932 9.09660 
581 1 3 0.000000 15.16100 15.16828 3.03220 
582 1 3 0.000000 9.09600 21.23268 9.09660 
583 1 3 0.000000 3.03220 3.03220 3.03948 