LAMMPS (11 Aug 2017)
OMP_NUM_THREADS environment is not set. Defaulting to 1 thread. (../comm.cpp:90)
  using 1 OpenMP thread(s) per MPI task
Read molecule mol1:
  6 atoms with 4 types
  5 bonds with 2 types
  4 angles with 2 types
  3 dihedrals with 1 types
  0 impropers with 0 types
Read molecule mol2:
  3 atoms with 2 types
  2 bonds with 1 types
  1 angles with 1 types
  0 dihedrals with 0 types
  0 impropers with 0 types
Lattice spacing in x,y,z = 30 30 90
Created orthogonal box = (0 0 0) to (30 30 90)
  1 by 1 by 1 MPI processor grid
WARNING: Molecule attributes do not match system attributes (../molecule.cpp:1369)
Created 738 atoms
WARNING: Molecule attributes do not match system attributes (../molecule.cpp:1369)
Created 2700 atoms
Setting atom values ...
  900 settings made for charge
Setting atom values ...
  1800 settings made for charge
Setting atom values ...
  246 settings made for charge
Setting atom values ...
  492 settings made for charge
2700 atoms in group water
Finding SHAKE clusters ...
  0 = # of size 2 clusters
  0 = # of size 3 clusters
  0 = # of size 4 clusters
  900 = # of frozen angles
1023 rigid bodies with 3438 atoms
Neighbor list info ...
  update every 1 steps, delay 10 steps, check yes
  max neighbors/atom: 2000, page size: 100000
  master list distance cutoff = 5
  ghost atom cutoff = 5
  binsize = 2.5, bins = 12 12 36
  1 neighbor lists, perpetual/occasional/extra = 1 0 0
  (1) pair soft, perpetual
      attributes: half, newton on
      pair build: half/bin/newton
      stencil: half/bin/3d/newton
      bin: standard
Setting up Verlet run ...
  Unit style    : real
  Current step  : 0
  Time step     : 2
Per MPI rank memory allocation (min/avg/max) = 26.11 | 26.11 | 26.11 Mbytes
Step Temp Press Volume PotEng KinEng TotEng v_IFT 
       0            0    3262.6133        81000    6526.9894            0    6526.9894   -2233.3436 
     100    511.56831    2679.2317        81000    1313.1682    1745.9967    3059.1649   -1011.2183 
     200    258.29782    1821.2944        81000     680.2724    881.57758      1561.85    -888.9824 
     300    159.65425    1278.8066        81000    409.09053    544.90434    953.99487   -745.13241 
     400    110.62413    904.26617        81000    264.71862    377.56319    642.28181   -659.94589 
     500    81.170202    655.80182        81000    181.60219    277.03613    458.63832    -510.4715 
     600    62.871771    458.77403        81000    127.09004    214.58308    341.67313   -417.45002 
     700     51.12798    311.87388        81000    88.112248     174.5012    262.61345   -332.69343 
     800    40.576061    232.63073        81000    69.490765    138.48721    207.97798   -280.07609 
     900    33.985378    168.94931        81000    54.482666    115.99303    170.47569   -211.40851 
    1000    28.712198    137.70706        81000    46.540331    97.995521    144.53585   -182.85107 
    1100    25.269756    112.64745        81000    40.474395    86.246371    126.72077   -141.98171 
    1200    22.719669    98.742555        81000    37.444568    77.542855    114.98742   -133.81913 
    1300    21.065536    99.947943        81000    35.870095    71.897255    107.76735   -96.812249 
    1400     20.15273    88.092969        81000    33.838625    68.781822    102.62045    -96.71381 
    1500    19.314364    85.229883        81000    32.906031    65.920455    98.826486   -92.422481 
    1600    18.662964    86.939917        81000    32.307712    63.697208    96.004921   -79.352913 
    1700    18.420806      77.1576        81000    31.165446    62.870716    94.036162   -59.144186 
    1800    17.933272    83.451937        81000    31.359349    61.206751      92.5661   -48.918326 
    1900    17.784926    79.042994        81000    30.905066    60.700442    91.605508   -57.210207 
    2000    17.833162    72.609274        81000      30.0839    60.865071    90.948971   -51.463524 
    2100    17.774833    72.249946        81000    29.742936    60.665995    90.408931   -53.548523 
    2200     17.64232    74.945739        81000    30.011355    60.213723    90.225077    -24.04538 
    2300    17.602828     72.71014        81000    29.946282    60.078937    90.025219   -35.119905 
    2400    17.722106    77.251047        81000    29.535136    60.486037    90.021173   -26.862966 
    2500    17.999552    69.525348        81000    28.699116    61.432967    90.132082   -27.065918 
    2600    17.722189    79.368035        81000    29.482945    60.486317    89.969262    -15.84037 
    2700    17.738069    82.197979        81000    29.590118    60.540518    90.130636   -16.086041 
    2800    17.885478     81.81543        81000    29.215153     61.04363    90.258783   -10.208825 
    2900    17.958206    79.623901        81000    29.009049    61.291852    90.300901   -3.1518303 
    3000    18.125794    80.085747        81000    28.887888    61.863832     90.75172   -9.4420223 
    3100    17.962062    75.472698        81000    29.530671    61.305011    90.835681   -21.532156 
    3200    17.842691    84.291163        81000    29.783338    60.897597    90.680935   -13.511378 
    3300    17.978232     83.76436        81000    29.514265    61.360202    90.874467   -6.0212026 
    3400    18.030787    76.444704        81000    29.002763     61.53957    90.542333   -5.9281644 
    3500    17.707325    90.824059        81000    30.065032    60.435587    90.500618   -2.4461762 
    3600    18.095757    83.239153        81000    29.584605    61.761317    91.345922   -7.8847218 
    3700    17.867565      83.0347        81000    29.504595    60.982493    90.487087   -6.3591107 
    3800    17.847233    85.039078        81000    29.755426    60.913098    90.668524   -7.0594621 
    3900    17.888387    85.056437        81000    29.754902    61.053557    90.808459   -12.826199 
    4000    17.743108    88.859037        81000    29.981436    60.557717    90.539153    -4.823987 
    4100    18.047731    79.642782        81000    29.389443    61.597402    90.986845   -6.1303031 
    4200    17.517363    81.811639        81000    30.440228     59.78724    90.227469   -6.2287921 
    4300    17.653012    96.600658        81000     29.76231    60.250214    90.012525    9.7024984 
    4400    18.308388    102.24412        81000     29.43495    62.487033    91.921983    14.433384 
    4500    18.020939    83.267143        81000    29.974923    61.505962    91.480885   -6.8768288 
    4600    17.837059    85.031836        81000    29.737144    60.878372    90.615516    1.3494436 
    4700    18.161682    85.097505        81000    29.743125    61.986319    91.729445  -0.30765609 
    4800    18.048684     83.38097        81000    29.539269    61.600654    91.139923   -5.5851157 
    4900    17.669005    95.399179        81000    30.516903    60.304802    90.821704    7.1665444 
    5000    17.889546    95.279331        81000    30.315344    61.057514    91.372857      14.9207 
    5100    17.818457    87.454093        81000    30.144926    60.814884     90.95981   -13.335698 
    5200    17.449539    92.091021        81000    30.824882    59.555756    90.380638   -4.9847065 
    5300    17.760221     95.27884        81000    30.273495    60.616121    90.889616    10.716444 
    5400    18.390501    95.430266        81000    29.816666    62.767286    92.583952    10.577717 
    5500    17.890245    86.071601        81000    30.463958    61.059898    91.523856   -3.1653086 
    5600    17.789392    96.632002        81000    30.900522    60.715684    91.616206    8.3527875 
    5700    18.424286    100.75547        81000    30.575477    62.882596    93.458072    12.794506 
    5800     18.14494    98.004203        81000    30.623311     61.92918     92.55249   -10.431438 
    5900    17.518599    87.081031        81000    30.487742    59.791462    90.279204   -17.893223 
    6000    17.399735    97.974362        81000    30.727206    59.385775    90.112981   0.10030086 
    6100    17.834846     108.2574        81000    31.504063     60.87082    92.374883    4.7671891 
    6200    18.264105    103.07117        81000    31.527767    62.335891    93.863659    1.4988009 
    6300    17.990694    98.502156        81000    30.995589    61.402733    92.398322   -4.0010402 
    6400     17.87748    92.475578        81000    30.408888     61.01633    91.425219    1.5380613 
    6500    17.980528    87.639018        81000    29.559252    61.368036    90.927288    1.7310631 
    6600    17.519442     98.13736        81000    30.725762    59.794338    90.520099   0.39236908 
    6700     17.80788    110.39744        81000    31.033534    60.778785    91.812319    8.2542021 
    6800    18.151747    108.60563        81000    31.820887    61.952414      93.7733    12.242137 
    6900    17.890746    104.96754        81000    31.698932     61.06161    92.760542   -3.6280282 
    7000    17.421936    99.972385        81000    31.041038    59.461548    90.502586   0.53884984 
    7100    17.081939    102.73552        81000    31.174191    58.301128    89.475319    17.762576 
    7200    18.258573    100.03976        81000     30.90762     62.31701    93.224631    4.1116026 
    7300    18.079823    102.29879        81000    31.567785    61.706933    93.274718   -2.9604611 
    7400    17.851072    98.124932        81000    31.223328      60.9262    92.149527  0.003511588 
    7500    17.548241    103.14913        81000    31.367912    59.892631    91.260543    11.900934 
    7600    17.851042    101.31907        81000    31.117431    60.926098    92.043529    1.3360228 
    7700    18.045949     107.4401        81000    32.122312    61.591321    93.713633    1.9356317 
    7800    17.957507    107.25233        81000    30.988232    61.289466    92.277698    1.9810309 
    7900    17.456412    107.61334        81000    31.615412    59.579215    91.194627   -5.4009707 
    8000    17.813332    111.30387        81000    31.592041    60.797392    92.389433   -6.6344758 
    8100    18.022774    109.14972        81000    31.670515    61.512223    93.182738   -2.4586121 
    8200    17.531863    108.94814        81000    32.212103     59.83673    92.048833    0.5324253 
    8300    17.450614    104.63826        81000    31.444625    59.559427    91.004052   -3.4669337 
    8400     17.81544    106.36528        81000    31.024882    60.804587    91.829469   -3.0889516 
    8500    18.385328    102.18322        81000    30.974129    62.749631     93.72376    8.4886135 
    8600    17.835311    104.34487        81000    31.530367    60.872407    92.402774    8.1674148 
    8700    17.323388    102.58996        81000    31.331777    59.125201    90.456977    4.9681964 
    8800    17.579869    104.28824        81000    30.959552    60.000575    90.960127   -12.646905 
    8900    17.958873     112.4479        81000    32.231195    61.294127    93.525322    5.9395043 
    9000     18.34204    108.32412        81000    31.789714    62.601887    94.391602    6.4125641 
    9100    18.284353    97.827582        81000    30.481209       62.405    92.886209    5.9020868 
    9200    17.334984     105.8466        81000    31.869871    59.164776    91.034646  -0.31857952 
    9300    17.393351    101.41822        81000    30.750958    59.363985    90.114943   0.69940898 
    9400    17.624925    100.42828        81000     31.30786    60.154353    91.462213   -5.6418084 
    9500    18.210696    99.648114        81000    30.581043    62.153605    92.734648  -0.77471119 
    9600    17.795448    101.77409        81000    31.060128    60.736353    91.796481     3.236249 
    9700    17.552866    95.122283        81000    30.124016    59.908413    90.032429    6.7370111 
    9800    17.363319    92.467163        81000    29.897607    59.261485    89.159092    -2.100959 
    9900    17.506654    93.501895        81000    30.323533    59.750691    90.074224    -4.093088 
   10000    18.083605    99.929221        81000    30.491134    61.719842    92.210975   -8.6685352 
Loop time of 14.6543 on 1 procs for 10000 steps with 3438 atoms

Performance: 117.918 ns/day, 0.204 hours/ns, 682.395 timesteps/s
98.5% CPU use with 1 MPI tasks x 1 OpenMP threads

MPI task timing breakdown:
Section |  min time  |  avg time  |  max time  |%varavg| %total
---------------------------------------------------------------
Pair    | 3.0238     | 3.0238     | 3.0238     |   0.0 | 20.63
Bond    | 1.85       | 1.85       | 1.85       |   0.0 | 12.62
Neigh   | 0.70832    | 0.70832    | 0.70832    |   0.0 |  4.83
Comm    | 0.57563    | 0.57563    | 0.57563    |   0.0 |  3.93
Output  | 0.0064402  | 0.0064402  | 0.0064402  |   0.0 |  0.04
Modify  | 8.3966     | 8.3966     | 8.3966     |   0.0 | 57.30
Other   |            | 0.09347    |            |       |  0.64

Nlocal:    3438 ave 3438 max 3438 min
Histogram: 1 0 0 0 0 0 0 0 0 0
Nghost:    3313 ave 3313 max 3313 min
Histogram: 1 0 0 0 0 0 0 0 0 0
Neighs:    34918 ave 34918 max 34918 min
Histogram: 1 0 0 0 0 0 0 0 0 0

Total # of neighbors = 34918
Ave neighs/atom = 10.1565
Ave special neighs/atom = 2.42932
Neighbor list builds = 239
Dangerous builds = 6
Setting atom values ...
  900 settings made for charge
Setting atom values ...
  1800 settings made for charge
Setting atom values ...
  246 settings made for charge
Setting atom values ...
  492 settings made for charge
2700 atoms in group water
Finding SHAKE clusters ...
  0 = # of size 2 clusters
  0 = # of size 3 clusters
  0 = # of size 4 clusters
  900 = # of frozen angles
PPPM initialization ...
WARNING: Using 12-bit tables for long-range coulomb (../kspace.cpp:321)
  G vector (1/distance) = 0.167417
  grid = 8 8 16
  stencil order = 5
  estimated absolute RMS force accuracy = 0.260547
  estimated relative force accuracy = 0.000784631
  using double precision FFTs
  3d grid and FFT values/proc = 3549 1024
Neighbor list info ...
  update every 1 steps, delay 10 steps, check yes
  max neighbors/atom: 2000, page size: 100000
  master list distance cutoff = 14
  ghost atom cutoff = 14
  binsize = 7, bins = 5 5 13
  1 neighbor lists, perpetual/occasional/extra = 1 0 0
  (1) pair lj/cut/coul/long, perpetual
      attributes: half, newton on
      pair build: half/bin/newton
      stencil: half/bin/3d/newton
      bin: standard
Setting up Verlet run ...
  Unit style    : real
  Current step  : 10000
  Time step     : 2
Per MPI rank memory allocation (min/avg/max) = 51.94 | 51.94 | 51.94 Mbytes
Step Temp Press Volume PotEng KinEng TotEng v_IFT 
   10000    8.1615009    18537.562        81000    3509.8816    61.719842    3571.6014   -1023.3786 
   10100    669.30767    1493.3332    83970.486   -2983.3287    5061.5155    2078.1868   -40.005458 
   10200    577.20674    1505.7791    86346.854   -4316.4438    4365.0192    48.575433    192.78606 
   10300    485.63272    30.187267    87647.967    -5275.128    3672.5077   -1602.6203    -62.09986 
   10400    406.38605    596.81623    88118.638   -5933.0484    3073.2194   -2859.8291    348.23311 
   10500    358.73221   -947.85565    88128.833   -6509.8952     2712.846   -3797.0492   -188.59741 
   10600    338.97867    -387.6592    87344.564     -7071.62    2563.4635   -4508.1565     150.7463 
   10700    317.66341   -1079.0909    86475.928   -7472.9832    2402.2708   -5070.7124    75.611525 
   10800    300.07129   -995.96834    85491.525    -7740.869    2269.2337   -5471.6353   -72.785601 
   10900    286.15497   -575.81262    84421.105   -7911.1666     2163.994   -5747.1726    350.20392 
   11000    292.39448   -358.28058    83496.017   -8074.3444    2211.1792   -5863.1652   -12.719187 
   11100    288.49762   -515.92563    82725.859   -8041.4883    2181.7099   -5859.7784    244.30484 
   11200    302.95318   -755.24404    81954.938   -8083.8819    2291.0274   -5792.8545    99.689723 
   11300    306.80827   -950.76109    81085.142   -8113.0145    2320.1808   -5792.8337    134.14051 
   11400    303.09634   -1055.2429    80215.336   -8155.4917    2292.1101   -5863.3816   -117.49237 
   11500    298.75364   -819.94522    79418.436   -8251.8226    2259.2691   -5992.5535    63.237065 
   11600    287.90529   -567.86141    78576.319   -8308.1798    2177.2306   -6130.9493    169.62243 
   11700    291.34201   -504.23746     77803.86   -8405.7964    2203.2201   -6202.5763   -135.43842 
   11800    290.92931   -446.65842    77214.021   -8391.7899    2200.0991   -6191.6908    160.86511 
   11900    302.32587   -129.57713    76732.912   -8454.5259    2286.2835   -6168.2424    249.32723 
   12000    302.94158   -1175.5208    76175.028   -8432.7942    2290.9396   -6141.8545    41.997999 
   12100    301.59239   -1076.3765    75301.124   -8426.7677    2280.7367    -6146.031     174.6058 
   12200    304.05209   -453.11036    74615.678   -8509.6825    2299.3377   -6210.3448   -15.827776 
   12300    292.68661   -531.97363    74077.192   -8526.6555    2213.3884   -6313.2671     86.39844 
   12400    292.07262   -304.82235    73355.843   -8596.9008    2208.7451   -6388.1557    170.42674 
   12500    292.38674   -184.48034    72802.141   -8631.7429    2211.1206   -6420.6223    46.177188 
   12600    299.41393   -217.40988    72344.368   -8715.4106    2264.2625   -6451.1481   -95.861568 
   12700     299.3759   -779.53836    71908.351   -8740.1169    2263.9749   -6476.1421   -3.1017423 
   12800    290.52469   -623.24292    71547.982   -8705.7566    2197.0392   -6508.7174   -140.43737 
   12900    288.70625   -528.74233    71211.453   -8685.9255    2183.2876   -6502.6378    126.14736 
   13000    298.79626    121.34356    71017.684   -8698.2891    2259.5915   -6438.6977   -58.386324 
   13100    304.03417   -324.64287    70802.689   -8737.1389    2299.2022   -6437.9367   -120.96022 
   13200     292.2859    114.64945    70402.832   -8745.4467    2210.3581   -6535.0886    272.81076 
   13300    292.89492   -766.98825    69946.387    -8790.083    2214.9637   -6575.1193    235.95143 
   13400    307.55713   -929.92294    69366.888   -8877.6033    2325.8439   -6551.7593    33.825301 
   13500    299.45444   -252.35433    68856.177   -8791.6453    2264.5688   -6527.0764    19.778331 
   13600    300.60179   -571.92094    68570.136   -8823.7791    2273.2455   -6550.5336    23.762586 
   13700    297.73252   -466.65053    68241.551   -8843.3474    2251.5471   -6591.8003    291.48433 
   13800     297.8204   -228.45461    67887.061   -8904.2758    2252.2117   -6652.0641    348.55747 
   13900    295.02231   -221.42974    67598.994   -8924.1134    2231.0516   -6693.0618   -94.293075 
   14000    295.07891   -772.47076    67211.242   -8937.3816    2231.4797   -6705.9019    176.23827 
   14100    296.00238   -152.46709      66845.5   -8910.1277    2238.4633   -6671.6644     260.1341 
   14200    299.95839   -329.44455    66601.032   -8875.8473    2268.3799   -6607.4674   -43.840281 
   14300    316.09607   -920.31334    66402.048   -8959.9783    2390.4181   -6569.5602   -79.398069 
   14400    298.75895   -384.12137    66013.929   -8898.0912    2259.3093   -6638.7819    61.287615 
   14500    296.81537   -174.62006    65546.946   -8982.6762    2244.6113   -6738.0649    396.88927 
   14600    295.66307     445.9062     65257.62   -9042.6412    2235.8973   -6806.7439   -94.755315 
   14700    296.74045   -315.29757    64960.706     -9093.55    2244.0448   -6849.5052    202.90927 
   14800    293.50253    97.710089    64698.616   -9088.1113    2219.5586   -6868.5527    136.42222 
   14900    298.45349   -259.58506    64498.458   -9119.0472    2256.9993   -6862.0479    10.312857 
   15000    300.95502   -132.15637    64358.019   -9137.2338    2275.9167   -6861.3171    47.046514 
   15100    294.80199   -67.174747    64243.262    -9048.445    2229.3856   -6819.0595   -65.649219 
   15200    302.17824    214.53511    63834.421   -9054.3953     2285.167   -6769.2283    176.08888 
   15300    301.64775   -124.71766    63400.014   -9039.7552    2281.1553   -6758.5999    8.9753175 
   15400    304.10389    293.66249    63058.982   -9080.0882    2299.7294   -6780.3588    398.40367 
   15500    295.35354   -339.32282    63117.422   -9087.3312    2233.5565   -6853.7747   -100.28603 
   15600    292.58615   -489.16669    63208.847   -9112.9975    2212.6287   -6900.3688    9.0621676 
   15700    293.59099   -30.258557    63016.574   -9112.6907    2220.2276   -6892.4631    74.459366 
   15800    299.49696   -90.684562    62658.246   -9097.8972    2264.8904   -6833.0068    149.53863 
   15900    301.53349   -507.03141    62255.972   -9096.8669    2280.2913   -6816.5756    193.88141 
   16000    300.96401   -606.92955    61866.405   -9119.1709    2275.9847   -6843.1862   -202.18952 
   16100     294.0214   -320.83286    61376.018    -9108.712    2223.4824   -6885.2296    21.446583 
   16200     300.0614   -453.42255    60873.513   -9195.2975    2269.1588   -6926.1387    133.71836 
   16300    298.34937   -358.99856    60701.007   -9139.4305    2256.2119   -6883.2186   -2.2823522 
   16400    300.82015   -351.97184    60568.319   -9125.3914    2274.8967   -6850.4947    102.10672 
   16500    304.46583   -7.2078514    60354.093    -9148.407    2302.4665   -6845.9405   -141.71877 
   16600    295.27212    85.483762    60220.152   -9107.8231    2232.9408   -6874.8823     328.4235 
   16700    291.79169   -471.92134     60134.41   -9132.3058    2206.6207   -6925.6851    107.85924 
   16800    302.21443   -614.28498    59824.104   -9239.2508    2285.4407   -6953.8101   -196.67523 
   16900    298.80742      -42.216    59428.255   -9239.0784    2259.6758   -6979.4026    92.589175 
   17000    300.15117    -422.0684    59148.144    -9232.755    2269.8377   -6962.9173    312.09896 
   17100    296.48496   -558.01417    58887.397   -9162.0185    2242.1127   -6919.9059   -7.4503703 
   17200    291.23939     -2.79588    58606.708   -9132.9378     2202.444   -6930.4938    -7.771046 
   17300    292.20105   -194.23946    58415.847   -9171.8543    2209.7164   -6962.1379    342.30852 
   17400      295.675   -353.06316    58286.762   -9227.0365    2235.9875    -6991.049    -88.58745 
   17500    293.40872   -325.13334    58037.118   -9209.8142    2218.8492   -6990.9649    127.13656 
   17600    303.35396   -267.31768    57838.613   -9296.4627    2294.0582   -7002.4045   -156.39838 
   17700    299.54129     -196.426    57610.447   -9330.6824    2265.2256   -7065.4568    32.460197 
   17800    295.90585   -455.06749    57451.409   -9346.8562    2237.7333   -7109.1229   -15.911661 
   17900    286.31887   -252.68794    57270.345   -9267.1909    2165.2336   -7101.9574    250.01698 
   18000    300.28351   -113.04322    57076.647   -9274.1873    2270.8385   -7003.3489     228.3768 
   18100    303.52531   -149.47046    57042.696    -9257.271    2295.3541   -6961.9169    362.31738 
   18200    298.34236   -166.44872    57116.864    -9243.093    2256.1589    -6986.934    91.743202 
   18300    295.95888   -347.00063    56953.441   -9268.3697    2238.1343   -7030.2354    136.06178 
   18400    293.78397   -411.12415     56643.44   -9281.2347     2221.687   -7059.5478    117.03155 
   18500    298.81166    117.47463    56354.982   -9331.2004    2259.7079   -7071.4925    169.41195 
   18600    300.51139    175.94433    56349.818   -9334.6624    2272.5618   -7062.1006    93.339911 
   18700     303.8293   -140.33816    56492.795   -9370.8438    2297.6529   -7073.1909   -93.620027 
   18800     293.1694   -66.416764    56552.837   -9312.7202    2217.0394   -7095.6808   -56.452347 
   18900    296.47949   -468.73351     56394.97   -9320.9384    2242.0713   -7078.8671   -35.409527 
   19000      300.068    61.416363     56102.21    -9289.038    2269.2088   -7019.8292    343.26938 
   19100    299.12222    1.3518374    56034.278   -9266.6342    2262.0565   -7004.5777    -158.9863 
   19200    303.94166   -82.599586    56036.455   -9291.6692    2298.5026   -6993.1667   -33.852119 
   19300    293.61964     306.6883    56000.393   -9295.5315    2220.4442   -7075.0873    125.37874 
   19400    293.54197     352.8212    55915.913   -9350.2456    2219.8568   -7130.3888    57.155351 
   19500    288.71577   -838.06892    55761.116   -9346.6327    2183.3596   -7163.2731    72.650902 
   19600    293.09898   -369.40957     55624.94   -9345.5481    2216.5068   -7129.0413    265.89595 
   19700    300.73259     269.2268    55661.092   -9349.8138    2274.2346   -7075.5792   -112.53057 
   19800    300.58301   -533.37718    55690.096   -9348.6464    2273.1034   -7075.5429    64.094627 
   19900    300.38861   -170.11159    55697.169   -9389.0209    2271.6333   -7117.3876   -50.756151 
   20000    296.74206   -139.15828    55697.215   -9422.1343     2244.057   -7178.0774    32.184704 
   20100    300.42101   -10.062484    55578.705    -9479.015    2271.8783   -7207.1367    170.06865 
   20200    299.20998    135.63061    55435.148   -9477.7403    2262.7202   -7215.0202   -69.438817 
   20300    294.02691   -603.15438    55258.222   -9467.6225    2223.5242   -7244.0983    274.21993 
   20400    297.62233   -423.29952    55180.875   -9490.5117    2250.7138   -7239.7979    179.36374 
   20500    292.52038   -206.60208    55172.395   -9409.2778    2212.1313   -7197.1465    62.076418 
   20600    302.31886   -27.683624    55219.625   -9410.2155    2286.2305   -7123.9851  -0.57813957 
   20700    298.25332   -89.376967    55365.929   -9372.8384    2255.4856   -7117.3528   -198.85051 
   20800    295.23486    363.14973     55335.02   -9376.3473    2232.6591   -7143.6882   -144.12176 
   20900    298.47595   -271.06807    55260.869   -9505.0319    2257.1692   -7247.8627    170.14993 
   21000    293.42314   -368.35711    55257.697    -9472.897    2218.9583   -7253.9387   -70.487298 
   21100     301.7207   -168.82333    55301.152   -9499.5708     2281.707   -7217.8638   -163.78897 
   21200    296.58159   -111.42645    55447.988   -9424.0727    2242.8434   -7181.2293    286.78204 
   21300    292.22625   -148.14475    55804.963   -9376.4482     2209.907   -7166.5412    41.547324 
   21400    293.77981   -464.54254    55910.714   -9371.1679    2221.6555   -7149.5124   -26.323218 
   21500    301.06622    85.348355    55694.364   -9397.0888    2276.7576   -7120.3312   -109.76139 
   21600    301.55081   -161.73441    55603.269   -9439.5795    2280.4222   -7159.1572     31.04313 
   21700    293.07974   -76.635265    55647.228   -9452.8428    2216.3614   -7236.4815    65.706106 
   21800    290.97973   -163.02712    55886.802   -9469.5524    2200.4804    -7269.072    174.43834 
   21900    293.19056   -286.28289    56129.899   -9416.5814    2217.1994    -7199.382   -12.488533 
   22000    303.31993   -603.78984    56176.236   -9459.6926    2293.8009   -7165.8918    52.896796 
   22100    294.86253   -78.255929    55949.888   -9355.8931    2229.8434   -7126.0498   -147.33769 
   22200     302.3147   -107.62602    55552.658   -9355.0513    2286.1991   -7068.8522    167.30033 
   22300    293.68235    422.11352    55300.468    -9332.747    2220.9184   -7111.8286   -165.02234 
   22400    298.75859   -219.47715    55285.279   -9483.7634    2259.3066   -7224.4569   -57.347465 
   22500    294.92492    -174.6759    55374.441   -9471.9294    2230.3151   -7241.6143   -254.39219 
   22600    294.84901   -359.27704    55456.078   -9470.4876    2229.7411   -7240.7465    42.203654 
   22700    298.08048    676.85051    55722.749   -9416.0949    2254.1785   -7161.9164   -237.43823 
   22800    297.62812    40.181427    56126.516   -9355.5354    2250.7576   -7104.7778    8.5937727 
   22900    299.35965   -311.19496    56583.119   -9382.9322     2263.852   -7119.0802   -211.34951 
   23000    299.53414   -407.95764     56814.67   -9389.8341    2265.1716   -7124.6626    148.92091 
   23100    295.57728   -772.78064    56862.409   -9445.4228    2235.2485   -7210.1743    48.750946 
   23200    290.18214   -324.61603    56947.384   -9484.9766    2194.4488   -7290.5278   -145.35941 
   23300    292.80766   -569.33888    57023.178   -9498.8598    2214.3038    -7284.556    183.64977 
   23400    300.17886   -363.01303    56885.983   -9496.0055    2270.0471   -7225.9584   -70.981504 
   23500    295.54009   -283.79824    56448.724   -9405.3494    2234.9673   -7170.3821    92.844875 
   23600     304.7659    141.96489    56077.429   -9422.9434    2304.7358   -7118.2076   -196.16825 
   23700     298.7431   -188.90049    55929.194   -9371.4399    2259.1894   -7112.2505   -95.831587 
   23800    300.27151   -278.90302    55919.624   -9441.3356    2270.7478   -7170.5878    20.239019 
   23900    293.16744   -570.90526     55885.79   -9469.1646    2217.0246     -7252.14   -120.78098 
   24000     291.1971   -282.85787    55582.326   -9437.2006    2202.1242   -7235.0764     91.80624 
   24100    302.59476   -396.72492     55324.01   -9477.1809    2288.3169   -7188.8639     27.56718 
   24200    295.36618     377.5968    55154.713   -9422.4107    2233.6521   -7188.7586   -317.87866 
   24300     292.6237    62.806969    55119.657    -9461.916    2212.9126   -7249.0034    155.72802 
   24400    294.28416   -564.13928    55196.776   -9526.8874    2225.4695   -7301.4179    14.738428 
   24500    291.74874   -868.14326    55131.017   -9500.3791    2206.2959   -7294.0832    90.901307 
   24600    300.58639   -170.77295     54879.69   -9540.1353     2273.129   -7267.0063     113.2981 
   24700    303.15202    34.384263    54690.096    -9574.169    2292.5311   -7281.6378    379.40665 
   24800    298.17884    -405.8854    54645.133    -9535.625    2254.9223   -7280.7026   -84.425967 
   24900    296.48828    404.96284    54692.883   -9492.2614    2242.1378   -7250.1237      160.691 
   25000    291.30449   -91.798104    54806.943   -9420.9311    2202.9363   -7217.9947    32.228815 
   25100    298.37153   -200.93159    54886.714   -9457.4363    2256.3795   -7201.0567   -15.896353 
   25200    294.65628    173.43442    54909.318   -9430.6617    2228.2837    -7202.378    254.92734 
   25300    300.57664   -309.03283    55007.536   -9464.9109    2273.0553   -7191.8557    43.111523 
   25400    298.43036   -260.50961    55029.364   -9409.7552    2256.8244   -7152.9308   -4.7774549 
   25500    300.80326    351.52198    55011.582   -9391.5956     2274.769   -7116.8266     406.6332 
   25600    292.31701   -600.67331    55180.751   -9416.8925    2210.5934   -7206.2991   -150.13034 
   25700    292.77537   -763.20004    55263.585   -9447.8029    2214.0596   -7233.7433    154.41221 
   25800    298.22077    21.846436    55303.646   -9493.0977    2255.2394   -7237.8583   -57.497423 
   25900    291.06772   -224.24995    55218.399   -9457.9621    2201.1458   -7256.8163    -120.8442 
   26000    304.16033   -136.59076    54952.996   -9544.7578    2300.1563   -7244.6016    106.04989 
   26100    302.05278    513.73607    54630.029   -9505.5486    2284.2183   -7221.3303   -19.483871 
   26200    297.77934    84.948499    54656.371   -9512.4153    2251.9012   -7260.5141   -77.349193 
   26300    294.07377    373.28617    54676.316   -9536.4026    2223.8785   -7312.5241    29.190082 
   26400    297.03739   -35.540389    54908.906   -9569.8646    2246.2903   -7323.5743   -94.697279 
   26500    295.75093    37.208896    55243.286   -9467.9239    2236.5617   -7231.3622    58.882597 
   26600    298.37431    257.32235    55511.586    -9432.422    2256.4005   -7176.0215   -44.947238 
   26700     294.0947    -181.5206    55684.925   -9413.5037    2224.0368   -7189.4669    178.47112 
   26800    298.54229   -83.248129    55518.698   -9447.6962    2257.6709   -7190.0253    -130.3437 
   26900    297.57117    202.77538    55322.308   -9436.4393     2250.327   -7186.1123   -207.14391 
   27000    295.61064   -265.08981    55244.159    -9495.387    2235.5008   -7259.8862    107.76138 
   27100    291.83056   -77.280681     54945.96   -9538.9761    2206.9147   -7332.0614    252.60956 
   27200    293.16863   -426.07002    54823.359   -9562.8699    2217.0336   -7345.8363    31.087529 
   27300    296.33917   -699.50262    54848.046   -9588.7757    2241.0102   -7347.7655    4.4033641 
   27400     309.8438    223.09152    54703.666   -9585.7269    2343.1365   -7242.5905   -34.232953 
   27500    306.31745   -250.91941    54592.555    -9523.161    2316.4691   -7206.6919   -160.08374 
   27600    297.01635    184.89063     54561.89   -9505.9408    2246.1313   -7259.8095    48.760234 
   27700    295.49977    583.36802    54512.719   -9515.8117    2234.6624   -7281.1493    136.17566 
   27800     301.0071    205.77248    54581.531   -9589.6433    2276.3106   -7313.3328    303.06985 
   27900    297.58572   -301.93743    54810.171   -9624.7804     2250.437   -7374.3434    60.064338 
   28000    297.61737   -189.94192    54991.734   -9677.3167    2250.6763   -7426.6404    126.19285 
   28100    288.57666   -210.17012    55031.301   -9601.1702    2182.3076   -7418.8626   -341.22146 
   28200    301.30939    387.88318    54919.253   -9595.4276    2278.5965   -7316.8311    23.300367 
   28300    298.23215   -1.5365948    54939.494   -9566.4029    2255.3255   -7311.0773    36.308664 
   28400    296.37412   -32.584008    54998.465   -9579.0914    2241.2745   -7337.8169    -99.24524 
   28500    297.91083    -139.4501    54973.894   -9565.3598    2252.8955   -7312.4642   -83.706675 
   28600    295.20155    68.457998    54946.649   -9523.9621    2232.4071    -7291.555    35.555201 
   28700    302.79763    184.45862    54945.194   -9536.3939    2289.8511   -7246.5428    54.591992 
   28800    307.42679   -708.80579    55083.826   -9602.4694    2324.8582   -7277.6112    103.10129 
   28900    301.06704   -558.46187    55268.493   -9627.6529    2276.7639   -7350.8891    -74.52777 
   29000    295.40311   -620.30315    55200.867   -9574.6623    2233.9314   -7340.7309    121.63789 
   29100    291.23635   -342.80412    55154.715    -9517.274     2202.421    -7314.853    180.72422 
   29200    297.56834   -99.080693    55210.981   -9475.3074    2250.3055   -7225.0018   -14.396519 
   29300    310.15151   -298.47467    55257.374   -9551.7304    2345.4635   -7206.2669    21.594785 
   29400    301.30394   -131.13941    55331.468   -9508.4948    2278.5553   -7229.9395    18.640778 
   29500     298.6234   -306.48771    55431.066   -9501.3988    2258.2842   -7243.1146    72.203214 
   29600    297.04774   -102.45931    55384.563   -9487.7732    2246.3686   -7241.4046    172.20592 
   29700     304.2642    483.04953    55485.756   -9534.3777    2300.9418   -7233.4359   -37.565901 
   29800    294.53994   -440.24539    55734.669   -9523.2955    2227.4038   -7295.8916    101.32213 
   29900    295.51022   -367.72881    55888.625   -9557.4672    2234.7414   -7322.7258     152.4468 
   30000    297.90826   -338.86857    55838.275   -9563.1927    2252.8762   -7310.3165    166.02101 
   30100    297.26415   -843.74947    55624.011   -9496.7457    2248.0051   -7248.7405   -57.075163 
   30200     303.3082   -516.90076     55345.45   -9493.5267    2293.7122   -7199.8145    83.782387 
   30300    300.78605   -88.705974    55109.311   -9551.0569    2274.6389    -7276.418    39.843542 
   30400    290.06046   -655.54844    55022.541   -9538.2368    2193.5286   -7344.7083    79.935035 
   30500     299.3295   -440.93695    54812.199   -9572.9941     2263.624   -7309.3701    316.89355 
   30600    301.27055   -562.11886    54754.679   -9572.1367    2278.3028   -7293.8338    147.87589 
   30700    295.49617   -637.34424    54715.072   -9565.0749    2234.6352   -7330.4397    47.395739 
   30800     292.7227    234.93268    54526.866   -9620.4918    2213.6613   -7406.8305    193.74507 
   30900     298.4249   -85.272442    54403.767   -9694.2303    2256.7831   -7437.4472   -14.570834 
   31000    299.09357   -91.786399    54120.416   -9661.3759    2261.8398   -7399.5361    101.14999 
   31100     307.4031   -53.112508    54113.824   -9645.8288    2324.6791   -7321.1497    -289.2012 
   31200     305.2087    323.43527    54111.899   -9619.1477    2308.0844   -7311.0633   -2.1884639 
   31300    301.60411    377.30608     54224.75   -9605.5105    2280.8253   -7324.6852   -45.877235 
   31400    298.98069    -67.82219    54432.031   -9660.3974    2260.9862   -7399.4112    -222.3527 
   31500    291.17787    110.67008    54645.121   -9625.6669    2201.9788   -7423.6881   -11.671212 
   31600     292.0342    823.64167      54674.6   -9591.0104    2208.4546   -7382.5558    19.309172 
   31700    300.25071    517.34894    54727.606   -9589.0183    2270.5905   -7318.4279    221.11886 
   31800    296.46841    348.99194    54828.629   -9589.3239    2241.9875   -7347.3364    9.8173503 
   31900    293.48065    233.25398    54815.726   -9578.5256    2219.3932   -7359.1324    13.447472 
   32000    305.39661   -429.83853    54825.246   -9630.5818    2309.5054   -7321.0763   -29.230331 
   32100    296.38508    50.693135    54686.209   -9539.3673    2241.3573     -7298.01   -161.72247 
   32200    303.81348   -50.674995    54610.303   -9536.4097    2297.5333   -7238.8764   -72.080038 
   32300    304.43648   -241.27521    54819.729   -9582.6604    2302.2446   -7280.4158    67.340495 
   32400    294.51981    -158.9992    55033.944   -9586.8347    2227.2516   -7359.5831    129.33778 
   32500    297.65297   -109.03374    54908.555   -9602.3003    2250.9456   -7351.3547    235.19446 
   32600    299.75192     116.1823    54645.501   -9578.0347    2266.8185   -7311.2162   -50.018067 
   32700    295.94771   -19.741992    54514.245   -9526.4207    2238.0499   -7288.3708    138.69361 
   32800     296.6181   -365.53237    54593.966   -9488.7322    2243.1196   -7245.6127   -11.571131 
   32900    303.17039    74.412135    54658.861   -9551.0599      2292.67   -7258.3899   -45.763357 
   33000     291.8944    68.533057     54713.01   -9555.7928    2207.3974   -7348.3954   -209.45303 
   33100    296.20807     276.2481    54631.039    -9622.673    2240.0187   -7382.6543   -15.511119 
   33200    291.11304    634.56547    54661.505   -9599.3625    2201.4885    -7397.874    70.322255 
   33300    297.72091    309.29869    55007.374    -9657.855    2251.4593   -7406.3957    213.88309 
   33400    299.55928   -113.46115    55372.879   -9579.3819    2265.3617   -7314.0202    54.739673 
   33500    300.59999   -711.08634    55527.627   -9519.3006    2273.2318   -7246.0688   -29.149223 
   33600    307.12783   -315.16964    55419.042   -9587.2191    2322.5974   -7264.6217   -102.38506 
   33700    295.72518   -254.30255    55066.845   -9567.5391     2236.367    -7331.172     245.9596 
   33800     298.5612   -549.23949    54667.952   -9610.0347    2257.8139   -7352.2209    88.199248 
   33900    298.77991   -124.25257    54345.138   -9568.5584    2259.4678   -7309.0906   -6.1870705 
   34000    301.00917   -324.72136    54241.862    -9547.695    2276.3262   -7271.3688     350.5138 
   34100    305.59047   -297.19551    54515.612   -9607.8537    2310.9714   -7296.8823   -9.2852386 
   34200    299.20914   -449.59778    54816.274   -9655.1662    2262.7138   -7392.4524   -30.693725 
   34300    298.89455   -391.12193     54932.32   -9650.5357    2260.3348   -7390.2009   -396.82569 
   34400    300.28716    63.333625    54851.882   -9591.4067    2270.8661   -7320.5406    50.648478 
   34500    303.37109    -241.8458    54741.159   -9565.7745    2294.1878   -7271.5867    166.39914 
   34600    306.32483    144.29525    54633.167   -9525.7241    2316.5249   -7209.1992    99.234737 
   34700    305.45203   -272.06177    54506.186   -9561.1273    2309.9245   -7251.2028    78.494126 
   34800    296.90652   -51.744033    54304.581   -9596.2406    2245.3006     -7350.94   -115.16619 
   34900    298.22439   -202.20727    54229.453   -9638.4976    2255.2668   -7383.2307     323.8377 
   35000    296.49742   -241.90167    54288.301    -9634.394    2242.2069   -7392.1871    13.322244 
   35100    292.88861   -506.27933    54241.134   -9569.1728     2214.916   -7354.2569    149.01691 
   35200    302.37035   -91.682208    54212.019   -9580.0635    2286.6199   -7293.4437   -143.74158 
   35300    301.71759   -397.13805    54244.327   -9524.6881    2281.6835   -7243.0046   -92.949215 
   35400    301.96645   -45.865206    54161.637   -9524.3986    2283.5654   -7240.8332   -121.21236 
   35500    300.94045    314.56374    53894.809   -9569.2799    2275.8065   -7293.4733   -104.77801 
   35600    301.85518   -262.99918    53656.224   -9659.6195     2282.724   -7376.8955    33.168127 
   35700    291.70395    206.26557    53604.655   -9635.7208    2205.9572   -7429.7636   -2.2729851 
   35800    298.02083    301.15048    53693.132   -9675.3802    2253.7274   -7421.6528   -152.51758 
   35900    297.04915    372.53448        53932   -9589.6389    2246.3793   -7343.2597    286.10186 
   36000    301.54255    423.56048    54106.537   -9564.8172    2280.3598   -7284.4574   -114.58928 
   36100    301.09561    967.17267    54284.599   -9595.4179    2276.9799    -7318.438    155.51145 
   36200    298.58058    -162.7509    54576.954   -9574.4321    2257.9604   -7316.4717   -2.1932108 
   36300    298.76248    11.891809    54664.939   -9534.9565     2259.336   -7275.6205    139.79153 
   36400    300.59472    278.22441    54608.706   -9536.3328     2273.192   -7263.1408    156.90868 
   36500    297.42576   -514.35195    54573.303   -9539.3007    2249.2273   -7290.0734   -146.95911 
   36600    296.15568   -352.66611    54421.038    -9597.903    2239.6226   -7358.2804    252.09237 
   36700    297.43401   -184.26769    54324.061   -9630.6755    2249.2897   -7381.3858   -191.26063 
   36800    297.48561   -41.878104    54379.843   -9591.5161    2249.6799   -7341.8362    119.07055 
   36900    305.67098   -649.04416    54486.342    -9582.329    2311.5802   -7270.7488    278.82611 
   37000    306.05169   -551.23506    54539.267   -9600.3573    2314.4594    -7285.898    -54.00659 
   37100    292.36936   -173.59599    54576.828   -9602.8696    2210.9892   -7391.8804    131.23077 
   37200     296.8494   -549.35888    54619.855   -9626.6976    2244.8687   -7381.8289    173.61711 
   37300    300.22207    361.23746    54600.766   -9605.5426    2270.3739   -7335.1687   -46.247303 
   37400    303.13575    15.232511    54569.799   -9560.6746     2292.408   -7268.2665   -130.82708 
   37500    302.01893   -214.31109    54563.831   -9546.4973    2283.9623    -7262.535    51.583756 
   37600    290.81278    272.05203    54335.715   -9578.7976    2199.2179   -7379.5797   -45.250772 
   37700     293.6211    316.10203    54015.379   -9625.1132    2220.4553   -7404.6579    10.580112 
   37800    299.40655    14.810606    53980.988   -9661.0543    2264.2067   -7396.8476    217.41713 
   37900    299.16604    509.31078    54094.377   -9634.9356    2262.3878   -7372.5478   -71.048078 
   38000    299.71639    293.30425     54261.26   -9588.8067    2266.5498   -7322.2569    129.42609 
   38100    293.97527   -199.84234    54295.371   -9533.0558    2223.1336   -7309.9222    213.12127 
   38200    305.08723    3.9308384    54239.829   -9530.3909    2307.1657   -7223.2251    190.55032 
   38300    302.67245   -295.52255    54232.079   -9507.3735    2288.9044   -7218.4691   -46.430336 
   38400    297.15483   -82.690021    54225.184   -9555.7638    2247.1785   -7308.5854    174.93276 
   38500     298.2872   -706.56279    54438.011   -9617.7895    2255.7418   -7362.0477   -231.57186 
   38600    295.36697   -265.23715    54520.242   -9596.4511    2233.6581    -7362.793    65.521189 
   38700    296.51968   -388.52342     54540.46    -9559.315    2242.3753   -7316.9397    55.853941 
   38800     304.0884    -468.7446    54546.743   -9577.3896    2299.6123   -7277.7772    51.414942 
   38900    307.69209   -307.18616    54458.817   -9583.6566    2326.8645    -7256.792    51.150019 
   39000    300.06558   -319.03826    54392.027    -9543.624    2269.1905   -7274.4335   -125.15767 
   39100    293.13668    252.26975    54241.435   -9545.5711    2216.7919   -7328.7792    356.51084 
   39200    296.01901    45.921372    54307.951   -9628.4685     2238.589   -7389.8794    154.71753 
   39300    288.94625   -319.58856     54737.59   -9562.2036    2185.1026   -7377.1011    55.761576 
   39400    296.12191   -90.608407    54952.631   -9534.9103    2239.3672   -7295.5432    281.75842 
   39500    300.32248   -293.11608    55131.059   -9570.4692    2271.1332    -7299.336   -11.686367 
   39600    301.49474   -375.81531    55207.196   -9532.6534    2279.9982   -7252.6552    242.39542 
   39700    298.43405    -332.3717    55261.431   -9469.8468    2256.8524   -7212.9945   -232.36061 
   39800    294.77417   -25.535282    55239.158   -9461.1946    2229.1751   -7232.0194    115.37251 
   39900    301.98902   -462.43039     55008.99   -9614.5789    2283.7361   -7330.8428  0.034061537 
   40000    297.37979    -290.8774    54546.284   -9618.8522    2248.8797   -7369.9725    50.776767 
   40100    296.72973   -388.68426    54148.801   -9620.4073    2243.9637   -7376.4435    43.474028 
   40200    294.41086    223.01077    53934.754   -9631.7771    2226.4277   -7405.3494    46.411686 
   40300    287.33622    414.29268    53823.753   -9670.3353    2172.9271   -7497.4082    7.0753142 
   40400    293.01585    423.13206    53790.913    -9700.888    2215.8782   -7485.0098   -44.014012 
   40500     290.3689     747.7803    53896.844   -9618.5382    2195.8611   -7422.6771     -112.972 
   40600    302.98506     85.15545    54014.836    -9683.598    2291.2685   -7392.3295   -43.871991 
   40700    299.06866    331.96758    54005.852   -9632.1588    2261.6514   -7370.5073    85.836031 
   40800     315.1168    415.59985    53965.497   -9714.8575    2383.0126   -7331.8449    333.22991 
   40900    295.14138   -433.64553    54176.586    -9603.739    2231.9522   -7371.7869   -60.816842 
   41000    289.32578   -602.10073    54291.232   -9630.6616    2187.9727   -7442.6888    223.09474 
   41100    302.26191    769.16487    54304.607   -9691.1248    2285.7998    -7405.325   -106.57052 
   41200    292.73079   -262.40167    54444.404   -9573.0083    2213.7225   -7359.2858    465.11547 
   41300    300.54841   -317.08976    54620.426   -9626.5125    2272.8418   -7353.6707    32.422954 
   41400    294.74454   -763.33027     54847.04   -9594.8676    2228.9511   -7365.9165    64.234232 
   41500    297.12323   -677.90473    54949.829   -9613.4733    2246.9395   -7366.5338     333.7792 
   41600    313.00271   -824.79277    54984.662    -9668.095    2367.0251   -7301.0698    93.724506 
   41700    305.57998   -174.47183    55021.734   -9559.9608    2310.8921   -7249.0687    315.85913 
   41800    305.12636   -384.14016     54950.74   -9613.3584    2307.4617   -7305.8967     48.93129 
   41900    293.14092   -285.39526    54772.531   -9555.7836     2216.824   -7338.9596    191.22959 
   42000    300.62731    211.08679     54562.36   -9628.3011    2273.4384   -7354.8627   0.11372843 
   42100    296.06811    335.50372    54334.481   -9619.5694    2238.9603   -7380.6091    26.010843 
   42200    297.27816    74.078316    54032.466   -9631.3699    2248.1111   -7383.2588   -73.908954 
   42300    297.56418    943.65848    53709.306   -9672.8976    2250.2741   -7422.6235   -70.172669 
   42400    294.35477    541.11741    53592.167   -9706.3088    2226.0035   -7480.3053     168.5655 
   42500    293.96817    56.133184    53704.694   -9661.9401    2223.0799   -7438.8602   -25.168646 
   42600    302.00155    599.65207    53905.699   -9667.0527    2283.8309   -7383.2218   -5.9971915 
   42700    298.77264   -193.04621    54227.268   -9630.1346    2259.4128   -7370.7218   -253.19766 
   42800    296.39543   -136.75165      54421.1    -9596.927    2241.4356   -7355.4914   -151.28885 
   42900    299.66478   -105.59199    54423.637   -9532.5149    2266.1595   -7266.3554    36.918668 
   43000    311.19447     438.8524    54374.752      -9591.8    2353.3506   -7238.4494   -455.17045 
   43100     299.2908   -59.705449    54316.869   -9588.1799    2263.3314   -7324.8486    -149.2041 
   43200     301.0674    448.12297    54284.078   -9641.4581    2276.7665   -7364.6915    55.200116 
   43300    300.06477    209.76489    54469.447    -9656.298    2269.1843   -7387.1137    47.872185 
   43400    296.47415    172.48314    54584.846   -9629.4394    2242.0309   -7387.4084   -156.77563 
   43500    302.50122   -124.71657    54667.582   -9600.1444    2287.6095   -7312.5349     34.85853 
   43600     300.8717    52.572562    54789.907   -9518.3462    2275.2866   -7243.0596    397.60074 
   43700     302.7883    140.19845    54995.338   -9560.6844    2289.7805   -7270.9039    290.69041 
   43800    291.91083   -400.38878    55244.789   -9560.8229    2207.5217   -7353.3012    152.84176 
   43900     296.1829    35.168981    55174.909   -9652.8353    2239.8284   -7413.0069    161.00382 
   44000     293.6586   -248.18885    54905.166    -9704.678    2220.7389   -7483.9391    23.924047 
   44100    290.12102    371.28523     54554.58   -9710.9226    2193.9866    -7516.936    165.62717 
   44200     293.7222    499.46224    54316.453   -9648.2481    2221.2198   -7427.0283   -156.61554 
   44300    293.81102    490.02612      54235.1   -9625.5326    2221.8915   -7403.6411    129.13419 
   44400    299.04238   -459.09231    54274.627   -9624.7026    2261.4527   -7363.2498    108.84502 
   44500    301.35986   -242.33739    54188.077   -9636.8528    2278.9782   -7357.8746    110.56621 
   44600     298.1806    -22.68405    54124.202   -9622.5829    2254.9357   -7367.6473   -21.153168 
   44700    299.43892    -739.2878    54026.616   -9665.9457    2264.4515   -7401.4942    188.43215 
   44800     298.0175    145.36006    53984.345   -9652.3441    2253.7022   -7398.6418    265.40566 
   44900    294.73036   -356.60187    54116.314   -9633.6903    2228.8439   -7404.8464   -83.936995 
   45000    303.59374    -168.7871    54315.355   -9647.5633    2295.8715   -7351.6918    140.91933 
   45100    305.65427   -740.80004    54485.356    -9613.147    2311.4539   -7301.6931   -114.65833 
   45200    303.18228   -518.58667    54587.831   -9571.6747      2292.76   -7278.9147    6.9531668 
   45300    301.52531    89.424588    54531.082   -9540.0551    2280.2294   -7259.8257    2.6804503 
   45400    296.53799    103.13736    54603.278   -9532.7513    2242.5138   -7290.2376   -251.93866 
   45500    292.07083   -730.04939    54581.938   -9567.3646    2208.7316    -7358.633    123.92023 
   45600    294.77236   -469.19505    54468.391   -9606.9728    2229.1615   -7377.8114     291.5303 
   45700    300.65619    446.09852     54239.95   -9622.0951    2273.6568   -7348.4383    35.653891 
   45800    305.56699   -104.69039    54177.361   -9701.1652    2310.7939   -7390.3713    146.30725 
   45900    298.83766   -686.11077    54408.676   -9731.5404    2259.9046   -7471.6358    94.318699 
   46000    286.86813   -677.76945    54544.046   -9641.7484    2169.3872   -7472.3612    218.28241 
   46100    290.90077   -240.61188    54449.807   -9603.2081    2199.8833   -7403.3248    1.5518393 
   46200    300.12993   -70.606483    54209.416   -9616.4885    2269.6771   -7346.8115    202.08627 
   46300    303.56909    221.62926    53922.313   -9649.1903    2295.6851   -7353.5052    51.809488 
   46400    300.05038   -22.508869     54028.49    -9693.685    2269.0755   -7424.6095    205.13462 
   46500    297.12576   -117.66448     54380.19   -9680.3386    2246.9586     -7433.38   -15.059371 
   46600    297.46618   -441.18151    54674.431   -9656.8936     2249.533   -7407.3605     63.53139 
   46700    296.98935    187.24672    54769.741    -9643.321     2245.927    -7397.394    43.396262 
   46800    292.89379    216.39865    54756.878   -9608.3062    2214.9551   -7393.3511    65.863528 
   46900    305.24212    260.21286    54671.727   -9654.2608    2308.3371   -7345.9237   0.94742494 
   47000    298.19354    293.73703    54644.091    -9586.895    2255.0335   -7331.8615   -20.598084 
   47100    296.07353    29.761426    54712.017    -9612.271    2239.0013   -7373.2697   -34.050112 
   47200    290.14698    137.87219    54646.087   -9621.4408    2194.1829   -7427.2579      215.155 
   47300    297.51526   -196.05348    54487.137   -9660.8904    2249.9042   -7410.9862    71.222552 
   47400    300.88118   -398.58645    54467.072   -9636.7728    2275.3583   -7361.4145    71.078089 
   47500    306.49315   -248.07457    54213.374   -9574.1381    2317.7977   -7256.3404   -13.892428 
   47600     297.2291    63.070052    53881.145   -9562.7064    2247.7401   -7314.9663   -114.73747 
   47700    300.90925   -220.55381    53559.774    -9644.022    2275.5706   -7368.4515     200.9379 
   47800    296.39223    453.64228    53348.287   -9664.5905    2241.4115    -7423.179   -223.38495 
   47900    294.82354     1.021511    53268.911   -9682.4666    2229.5485   -7452.9181     362.2853 
   48000    299.20361   -331.00497    53277.373   -9720.5075     2262.672   -7457.8355    329.99767 
   48100    300.66039    131.79767    53437.683   -9702.9326    2273.6886    -7429.244    192.82344 
   48200    298.56254     -16.5398    53764.723   -9647.2867     2257.824   -7389.4627   -119.06008 
   48300    301.19461    29.072428    53968.905   -9620.2813    2277.7285   -7342.5528   -113.95068 
   48400    303.33514   -234.55355    54226.307   -9631.3184    2293.9159   -7337.4025   -95.069423 
   48500    301.11349   -633.88228    54397.439   -9626.4651    2277.1151     -7349.35   -105.11094 
   48600    296.83281   -142.51782     54579.93   -9695.0327    2244.7433   -7450.2895   -23.584944 
   48700    291.95864   -509.80024    54745.247    -9664.718    2207.8832   -7456.8348   -217.22987 
   48800    294.24034   -393.76344    54659.481   -9649.2955    2225.1382   -7424.1573   -113.93135 
   48900    303.31455    94.812018    54340.919   -9622.6174    2293.7602   -7328.8573    69.035165 
   49000    298.78059    305.62867    54057.786   -9590.3585     2259.473   -7330.8856    205.42797 
   49100    303.68418   -345.98567    54080.433    -9670.425    2296.5555   -7373.8696   -29.241348 
   49200    294.25053   -414.44218    54027.708   -9657.3534    2225.2152   -7432.1382   -397.32292 
   49300    294.57714   -290.61112    53763.507   -9669.9897    2227.6852   -7442.3046    202.94464 
   49400     302.1361    478.32979    53727.039   -9693.3067    2284.8484   -7408.4582    236.88061 
   49500    308.90409    48.003058    53878.845   -9637.0094    2336.0301   -7300.9794    211.12433 
   49600    303.60399   -612.64512    54072.883   -9572.5526    2295.9491   -7276.6035    184.56536 
   49700    300.12897   -827.68171    54130.065   -9646.1024    2269.6699   -7376.4326   -313.38512 
   49800    296.78497    367.40039    53930.513    -9649.984    2244.3815   -7405.6026    39.813478 
   49900    295.15075   -392.35331     53837.52   -9692.6385     2232.023   -7460.6155   -37.727516 
   50000    294.12204   -122.96083    53652.761   -9720.1429    2224.2436   -7495.8994    163.83626 
   50100    292.18118    353.59584    53571.394   -9713.8789    2209.5662   -7504.3127    44.922523 
   50200     297.2858    735.32969    53631.715   -9682.9789    2248.1689   -7434.8101    42.368729 
   50300     307.6816    384.79652    53914.839   -9686.1057    2326.7852   -7359.3205    61.274833 
   50400    298.80494    69.099114     54376.71   -9668.3701    2259.6571    -7408.713   -186.76687 
   50500    291.75545    -405.3668    54628.302   -9651.6571    2206.3466   -7445.3104    306.61511 
   50600    299.18959   -607.32141    54674.995   -9716.4419     2262.566   -7453.8759   -340.23809 
   50700    304.68622   -173.62534    54549.066    -9704.087    2304.1332   -7399.9538    57.857879 
   50800    303.09255    -630.5301    54599.184   -9647.1785    2292.0814   -7355.0971    125.52875 
   50900    296.98921   -527.73265    54561.123   -9584.4088     2245.926   -7338.4828   -19.639151 
   51000    298.90848   -325.21562    54503.448   -9579.6174    2260.4401   -7319.1772   -42.398679 
   51100    304.73696   -178.18632    54458.307   -9601.3213    2304.5169   -7296.8044    254.46142 
   51200    291.72565   -711.33703    54410.186    -9588.069    2206.1213   -7381.9476    76.499997 
   51300    293.90238   -204.18412    54343.052   -9647.9172    2222.5824   -7425.3348    76.119666 
   51400    285.78308   -415.30061    54168.165   -9547.2328    2161.1817   -7386.0512    211.11269 
   51500    305.54258    429.39376    53865.628   -9620.1909    2310.6092   -7309.5817    127.87171 
   51600    305.16188    376.54622    53998.241   -9625.8037    2307.7303   -7318.0734   -43.443345 
   51700    298.24959   -431.00981    54237.795   -9648.2651    2255.4574   -7392.8078   -54.559458 
   51800    299.15651    665.50882    54058.444   -9652.3588    2262.3158    -7390.043    2.0784462 
   51900     305.4791    270.62718    53909.439   -9710.6867    2310.1292   -7400.5575    84.281776 
   52000     291.1076   -1.8860346    53932.411   -9661.3577    2201.4474   -7459.9103   -72.285385 
   52100    300.89184   -194.29823    53850.049   -9778.7697    2275.4389   -7503.3308    62.617547 
   52200    300.68706    258.64242    53683.265    -9752.432    2273.8903   -7478.5418     -265.005 
   52300    303.30125    235.71427    53554.173   -9677.3249    2293.6596   -7383.6653   -45.118697 
   52400    302.88856   -110.89246    53553.436   -9651.9598    2290.5387   -7361.4211    27.148125 
   52500    300.01566   -366.61354    53718.697   -9679.3964    2268.8129   -7410.5835   -122.91485 
   52600    295.03624   -263.44764    53931.112   -9690.4718     2231.157   -7459.3148   -20.045915 
   52700    287.87291    50.332746     54053.79   -9666.3871    2176.9856   -7489.4015   -70.703558 
   52800    296.66074   -350.91963    54124.404    -9691.249     2243.442    -7447.807    256.42387 
   52900     296.9385    347.88645    54126.274   -9650.6331    2245.5425   -7405.0906   -195.80018 
   53000    302.33634   -159.70279    54111.453    -9658.696    2286.3627   -7372.3333    196.68945 
   53100    306.79209   -47.620815    54116.656   -9669.3284    2320.0584     -7349.27     150.5121 
   53200    291.17023   -257.71419    54249.921   -9631.4312     2201.921   -7429.5101    169.29446 
   53300    295.78905   -483.59538    54489.449   -9739.4501      2236.85   -7502.6001    112.19125 
   53400    299.63611    37.530325    54530.543   -9715.4166    2265.9427    -7449.474   -33.871688 
   53500    295.08378    340.05752    54458.315   -9629.9385    2231.5165    -7398.422    54.282733 
   53600    297.51185    65.855223    54525.542   -9629.3204    2249.8783   -7379.4421    57.178486 
   53700    297.03172    89.949202    54639.941   -9615.8732    2246.2475   -7369.6257    204.18222 
   53800    300.72138   -524.08104    54781.136   -9629.0176    2274.1499   -7354.8677    373.83463 
   53900    300.28049   -317.69341    54897.061    -9568.348    2270.8157   -7297.5324    1.7170499 
   54000    303.38269    58.489837    54840.275   -9536.7324    2294.2755   -7242.4569    25.074878 
   54100    304.69996   -442.51812    54955.949   -9571.5242    2304.2371   -7267.2871    4.3691274 
   54200    302.72134   -71.235429    54992.689   -9615.9597    2289.2742   -7326.6855   -66.789993 
   54300     297.5551   -114.95688    54789.173   -9659.2345    2250.2054   -7409.0291     49.69299 
   54400    295.93502    500.90267     54445.72   -9653.5612    2237.9538   -7415.6073    217.09668 
   54500    296.89455    408.02063    54422.385    -9618.603    2245.2102   -7373.3928   -152.57423 
   54600    298.21282   -324.93683    54425.825   -9600.3692    2255.1793   -7345.1899    138.53647 
   54700    298.24748    125.65477    54376.865   -9545.7105    2255.4414   -7290.2691     -84.8795 
   54800    298.53424    1000.1902    54227.973   -9495.6596      2257.61   -7238.0496   -19.503008 
   54900    303.80983    21.047328    54366.894   -9597.4456    2297.5057   -7299.9399   -164.25422 
   55000    299.56032    6.0429064    54273.013   -9642.5403    2265.3695   -7377.1707   -295.82884 
   55100    291.77797   -96.304724    54051.865   -9620.7204    2206.5169   -7414.2035   -45.882701 
   55200    301.19797    276.69703    53933.362    -9733.011     2277.754    -7455.257   -29.971882 
   55300    295.60433   -496.76108    54000.261   -9739.8039    2235.4531   -7504.3508    334.91682 
   55400    294.09958   -233.21981    53997.539   -9767.0629    2224.0737   -7542.9892    168.04988 
   55500    291.24787   -244.86695    53769.581   -9770.7259    2202.5082   -7568.2177    207.31218 
   55600    304.06506    86.824143    53567.203   -9766.5929    2299.4358   -7467.1571    92.135817 
   55700    302.18667   -33.954435    53505.246   -9704.6243    2285.2308   -7419.3935    300.98695 
   55800    303.00309   -337.99888    53619.366   -9713.2442    2291.4049   -7421.8394    121.99919 
   55900    296.13415   -479.28281    53955.545   -9673.1573    2239.4598   -7433.6976     234.2961 
   56000    291.50056   -457.40953    54273.726   -9705.4443    2204.4191   -7501.0252    74.804766 
   56100    293.27683    112.59496    54324.662   -9708.6571    2217.8518   -7490.8052     6.710576 
   56200    300.47882   -133.34908    54452.215   -9647.1329    2272.3155   -7374.8174    206.84433 
   56300    298.26096     143.6739    54748.835   -9610.7731    2255.5434   -7355.2297   -237.14277 
   56400    303.76694     41.75066    54711.846   -9622.6367    2297.1813   -7325.4553    150.16522 
   56500    304.15035   -90.451517    54400.718   -9628.8581    2300.0808   -7328.7773    3.1323301 
   56600    303.44415   -131.71506    54045.765   -9626.5504    2294.7403   -7331.8101    208.85253 
   56700    300.24005    287.17864    54095.845   -9676.6328    2270.5098    -7406.123    90.769951 
   56800    294.35936   -310.29951    54230.186   -9677.2573    2226.0382    -7451.219   -26.210786 
   56900    296.12708   -294.09698    54132.141   -9681.1554    2239.4063   -7441.7491   -93.183875 
   57000    298.69685   -2.7555373    54010.172    -9598.335    2258.8397   -7339.4953     2.678732 
   57100    301.94562    277.45818    54053.404   -9601.1841     2283.408   -7317.7761    -240.6605 
   57200    295.33518    269.99126    54264.939   -9600.0038    2233.4177   -7366.5861   -19.867914 
   57300    296.51703   -158.43621    54532.234   -9611.5592    2242.3552    -7369.204   -48.215214 
   57400    299.93246    153.98561    54671.261   -9607.8897    2268.1838   -7339.7059    33.212585 
   57500    305.43815   -4.4317928    54628.243   -9624.1534    2309.8196   -7314.3338   -26.741258 
   57600    300.83603     396.5479    54509.158   -9602.7346    2275.0168   -7327.7177   -110.20618 
   57700    299.91092    162.10235    54505.724   -9671.2185    2268.0209   -7403.1976   -116.93536 
   57800     295.8448   -189.93739    54526.779   -9698.6938    2237.2716   -7461.4222    302.58271 
   57900    303.24353   -28.134769    54609.449   -9747.3367    2293.2231   -7454.1136    22.042244 
   58000    296.93861    280.70947     54814.93   -9661.1545    2245.5433   -7415.6111     296.8363 
   58100    306.28641   -306.34946    55086.989   -9654.2068    2316.2344   -7337.9724   -189.72594 
   58200    295.73614    -314.1052    55251.768   -9543.7323    2236.4499   -7307.2824    84.488953 
   58300    296.41451   -435.28776    55322.807   -9591.7327    2241.5799   -7350.1528   -93.935995 
   58400     299.2759   -6.2812333    55245.441   -9668.1443    2263.2187   -7404.9257   -85.432248 
   58500     286.9258    90.341799    54946.756   -9659.7366    2169.8233   -7489.9133    4.3458807 
   58600    288.70421    48.421471    54500.329   -9677.6776    2183.2722   -7494.4054    -165.0612 
   58700    295.89326    293.82597    54210.535   -9650.8145     2237.638   -7413.1765    282.79753 
   58800    302.14384    262.60394    54124.773   -9645.7039    2284.9069    -7360.797    81.284486 
   58900    303.42317    -440.3109     54084.04    -9658.373    2294.5816   -7363.7914    178.79944 
   59000    294.26639   -528.60777    53977.281   -9659.9026    2225.3352   -7434.5674    223.84659 
   59100    299.65828   -214.81523    53844.153   -9750.7427    2266.1104   -7484.6324     186.1338 
   59200    294.07998    362.38129    53973.032   -9746.1045    2223.9255    -7522.179   -48.095946 
   59300    291.57435    130.00234    54122.393   -9683.0048    2204.9771   -7478.0277    51.348544 
   59400     298.8608    145.73835    54333.007   -9689.7965    2260.0795   -7429.7169    216.40353 
   59500    304.51986    369.48766    54541.029   -9681.7133    2302.8752   -7378.8381   -116.98123 
   59600    302.75198    338.45433    54642.802   -9677.7245    2289.5059   -7388.2186    195.51027 
   59700    304.36695    642.88536    54704.545   -9677.8977    2301.7188   -7376.1789    157.00784 
   59800    297.95378   -62.156932    55033.874   -9669.6819    2253.2204   -7416.4615     228.4792 
   59900    297.31833   -1187.4342    55278.568   -9720.3099    2248.4149   -7471.8951    33.721868 
   60000    296.62719   -750.67842    55148.367   -9719.7277    2243.1882   -7476.5395      302.194 
   60100    298.32272   -435.80188    55021.305   -9658.0572    2256.0104   -7402.0468    159.81043 
   60200    297.89651   -1111.9624    54979.006   -9605.2221    2252.7873   -7352.4348   -90.204058 
   60300    297.88978   -360.02597    54943.602   -9619.9916    2252.7364   -7367.2552      176.344 
   60400    298.36254    -367.3708    54900.675   -9648.9298    2256.3116   -7392.6183     87.37862 
   60500    300.49951   -411.86716    54761.516   -9664.7268     2272.472   -7392.2548    15.470958 
   60600    298.30068   -25.697903    54382.225   -9654.7292    2255.8437   -7398.8855   -145.07672 
   60700    301.12063   -175.11237    54084.411   -9679.8493    2277.1691   -7402.6802   -33.759752 
   60800    298.60085    33.903381    53911.478   -9692.9836    2258.1137   -7434.8698   -42.907323 
   60900    299.17031    657.92932    53979.425   -9753.9649    2262.4201   -7491.5448    441.16536 
   61000    293.71712   -94.328536    54057.305   -9734.7801    2221.1814   -7513.5988   -183.48821 
   61100    294.49402   -373.85049    53934.591   -9704.9432    2227.0566   -7477.8866     197.2976 
   61200    301.04405     280.9509    53652.249   -9724.7888    2276.5899   -7448.1989    183.42186 
   61300      299.048    205.74028    53440.433   -9700.5897    2261.4952   -7439.0945   -95.066288 
   61400    293.09202   -79.104829    53240.347   -9679.5017    2216.4542   -7463.0475    127.46236 
   61500    300.10042   -61.844538    53192.129   -9739.9949    2269.4539    -7470.541    59.324909 
   61600    294.77824   -222.78258    53371.363   -9743.9022     2229.206   -7514.6963    187.24844 
   61700     301.0761   -141.46277    53571.349   -9761.5657    2276.8324   -7484.7333   -89.376791 
   61800    297.89686    -787.5216    53826.188    -9658.255    2252.7899    -7405.465   -63.258512 
   61900    302.01806   -953.34424    54000.768   -9663.4003    2283.9557   -7379.4446   -113.05707 
   62000    300.51019    -1150.162    54310.232   -9652.9785    2272.5528   -7380.4258     356.0176 
   62100    297.37495   -486.92117    54593.481   -9657.3844    2248.8431   -7408.5413    53.135208 
   62200    291.86314    -487.1524    54653.158   -9718.0278    2207.1611   -7510.8667    197.40117 
   62300    285.32407   -1029.1305    54443.884   -9664.5263    2157.7105   -7506.8158   -10.192486 
   62400     300.6499   -104.43732    54259.119   -9710.8168    2273.6093   -7437.2076   -175.58253 
   62500    297.11264    724.15154    54105.486   -9640.4658    2246.8594   -7393.6064    107.82805 
   62600    298.34217    330.41334    54060.289   -9614.5812    2256.1575   -7358.4237    269.12648 
   62700    298.51571    -45.09106    54114.427   -9607.6268    2257.4698    -7350.157   -66.836957 
   62800    312.27854    437.69054     54129.79   -9657.1961    2361.5487   -7295.6474   -62.437747 
   62900    309.31328    906.58582      54229.9   -9659.0709    2339.1245   -7319.9465    93.615071 
   63000     298.1607   -98.215158    54438.345   -9658.3804    2254.7852   -7403.5952    -10.96724 
   63100    295.41655    -66.97644    54612.548   -9689.2133     2234.033   -7455.1802    123.73986 
   63200    297.33402    140.94902    54611.367   -9696.2369    2248.5335   -7447.7034   -135.50731 
   63300     298.0265    300.76092    54385.968   -9645.8622    2253.7703   -7392.0919    37.472713 
   63400    307.44956    11.529384    54297.947   -9674.6557    2325.0305   -7349.6253    221.17813 
   63500     301.0255   -345.43165     54374.29   -9578.8085    2276.4497   -7302.3588   -203.06518 
   63600    299.62521   -184.55723    54335.013   -9621.4918    2265.8603   -7355.6315    213.67767 
   63700    295.83819    192.48722    54222.949   -9679.5406    2237.2216    -7442.319   -70.115888 
   63800    297.39992    2.8489091    54162.964   -9709.2117    2249.0319   -7460.1798   -160.63922 
   63900    298.41479   -667.74504    54240.433   -9708.4222    2256.7067   -7451.7156   -180.90238 
   64000    298.91101   -50.791196    54289.945   -9631.5576    2260.4593   -7371.0983    201.69997 
   64100    302.06937   -581.31594    54666.451   -9603.3837    2284.3437     -7319.04     24.84199 
   64200    297.71868    -314.2028    54794.067   -9573.8533    2251.4425   -7322.4108   -185.00779 
   64300    294.98035   -562.05673    54726.501   -9585.8757    2230.7343   -7355.1413    148.90133 
   64400    290.41186    -93.40483    54401.122   -9612.3734     2196.186   -7416.1874    80.738484 
   64500    293.83487   -152.12272    54129.188   -9687.6395    2222.0719   -7465.5677     185.7263 
   64600    295.55079   -43.076795    53986.899   -9651.7971    2235.0482   -7416.7489    246.84578 
   64700    301.87923    395.11045    54074.732   -9660.1258    2282.9059   -7377.2199    382.61141 
   64800    295.10817     826.2531    54421.855   -9595.3196     2231.701   -7363.6186   -81.664981 
   64900    295.05334    254.12303    54901.289   -9624.2853    2231.2863   -7392.9989   -211.67671 
   65000    299.28946   -183.34972    55172.133   -9653.9059    2263.3212   -7390.5846    68.607357 
   65100    293.08197   -575.49781     55268.88   -9582.5141    2216.3782   -7366.1359   -41.681051 
   65200    300.13661    42.565397    55118.459   -9577.6217    2269.7276   -7307.8941    279.60878 
   65300    300.32481   -19.596902    55068.581   -9556.3093    2271.1508   -7285.1585   -94.729632 
   65400    298.46898   -174.06681    54901.881   -9553.0815    2257.1165    -7295.965   -19.873243 
   65500    299.69104   -160.39453    54587.986    -9634.073    2266.3581   -7367.7149    79.109359 
   65600    299.02822     35.96658    54246.509   -9703.9855    2261.3456   -7442.6399    158.88234 
   65700    292.16787   -618.88845     54094.79   -9668.6905    2209.4655    -7459.225   -29.596249 
   65800    300.25473    -101.1113    53768.028    -9696.772    2270.6209   -7426.1512    80.098753 
   65900     299.3887    8.1182511     53474.42   -9665.3497    2264.0717   -7401.2779    353.37559 
   66000    295.04988   -416.38414    53317.758   -9700.2361    2231.2602   -7468.9759   -75.064691 
   66100    290.22792   -91.468805    53161.604   -9718.0266     2194.795   -7523.2317   -162.98886 
   66200    300.92304   -416.64057     53221.77   -9762.4063    2275.6748   -7486.7315    -26.98134 
   66300    303.59907   -245.29331    53333.105   -9749.7468    2295.9118    -7453.835    21.981253 
   66400     296.6756   -328.13128    53561.338   -9677.3476    2243.5544   -7433.7932     66.66264 
   66500    309.75637   -29.405689    53704.245   -9698.6893    2342.4752   -7356.2141    -48.93982 
   66600    301.22838   -134.17882    54034.842   -9652.4475    2277.9839   -7374.4636   -128.81026 
   66700    293.66358   -864.50458    54501.348   -9674.2954    2220.7765   -7453.5189    137.27225 
   66800    293.11126   -1144.1354    54634.854   -9648.9001    2216.5997   -7432.3004    174.36792 
   66900    303.19384    549.10864     54323.55   -9659.3744    2292.8473   -7366.5271   -198.70993 
   67000     302.5108    455.59058    54126.996   -9660.8773     2287.682   -7373.1953    143.01091 
   67100    292.76044    478.42582    54030.828   -9627.0783    2213.9467   -7413.1316    85.234513 
   67200    294.92176    200.73839    54044.877   -9649.1797    2230.2913   -7418.8884   -140.01006 
   67300    290.47899    71.150076    54053.282    -9646.644    2196.6936   -7449.9504     144.4645 
   67400    293.87203   -183.75487    54108.291   -9722.4067    2222.3529   -7500.0538    418.35548 
   67500    296.30991   -46.136519    54149.277   -9751.5028    2240.7889   -7510.7139   -191.62985 
   67600    294.63713    402.34143    54190.793   -9676.3771    2228.1388   -7448.2383     127.3523 
   67700    302.09907    140.80668    54253.802   -9657.3339    2284.5684   -7372.7655    201.56571 
   67800    302.82751   -22.953417    54301.025   -9668.9162    2290.0771   -7378.8391     187.4949 
   67900    302.36228    372.52371    54442.233   -9662.1066    2286.5588   -7375.5478   -92.621723 
   68000     293.9221   -242.03472    54618.279   -9661.7354    2222.7315   -7439.0039   -160.69314 
   68100    291.96117   -362.71543    54659.431   -9708.3268    2207.9024   -7500.4244    214.49589 
   68200    300.89855   -553.54371     54514.18   -9751.4583    2275.4897   -7475.9686   -249.46917 
   68300      301.768      155.415    54306.734   -9711.0572    2282.0647   -7428.9925     22.58205 
   68400    299.90177    552.95901     54110.06   -9697.9791    2267.9517   -7430.0274    -139.8431 
   68500    296.16957    501.19526    54013.454   -9686.0865    2239.7276   -7446.3589     70.14069 
   68600    296.84762   -166.06702    53806.765   -9773.5668    2244.8552   -7528.7116   -264.14308 
   68700    294.91991    353.94296    53446.668   -9796.2453    2230.2773    -7565.968   -44.292891 
   68800    300.41302    349.41982    53283.419   -9822.4046    2271.8179   -7550.5866   -45.437658 
   68900    308.06507    621.89903    53336.416   -9767.7055    2329.6852   -7438.0204   -214.31602 
   69000    298.57539   -446.91628      53582.1   -9720.8369    2257.9212   -7462.9157     46.71361 
   69100    292.49906   -463.07324    53836.099   -9740.2642    2211.9701   -7528.2941    103.61861 
   69200    294.68469   -358.13766    53955.783   -9769.8187    2228.4985   -7541.3202    219.03037 
   69300    296.13207   -498.88706    53939.273   -9758.3179     2239.444   -7518.8739    258.36257 
   69400    304.29588   -156.73212    54060.055   -9698.4768    2301.1813   -7397.2955    7.5369698 
   69500    306.23328   -481.57438    54232.251   -9715.0827    2315.8326   -7399.2502    47.363943 
   69600    299.12906    368.17107    54338.402    -9713.775    2262.1082   -7451.6668   -119.31352 
   69700    289.02271     37.89036    54368.516    -9689.922    2185.6808   -7504.2412    162.69072 
   69800    296.54572   -74.654633    54410.538   -9739.2643    2242.5722   -7496.6922    36.494327 
   69900    299.66178    222.95435    54452.539   -9723.2498    2266.1368   -7457.1129    143.65565 
   70000    297.66161    622.22972    54558.617   -9699.0802    2251.0109   -7448.0694      31.6847 
   70100    300.13158    294.37361    54809.382   -9677.8816    2269.6896    -7408.192   -270.81524 
   70200    307.43479    136.33307    55085.153   -9692.0931    2324.9188   -7367.1744    189.76516 
   70300    297.22564    143.04343    55317.697   -9665.3295    2247.7139   -7417.6155     42.97602 
   70400    293.52907   -7.7292148    55409.134   -9680.6654    2219.7593   -7460.9061    90.292473 
   70500    301.96761    88.336118    55357.628    -9758.547    2283.5742   -7474.9728   -51.448641 
   70600    295.32498   -327.36096     55318.79   -9650.4497    2233.3406   -7417.1091   -170.01331 
   70700    301.26471   -132.24689    55145.781   -9620.8033    2278.2586   -7342.5447    285.63014 
   70800    298.47844   -951.16344    55099.595   -9641.8591     2257.188    -7384.671    92.256777 
   70900    296.45631   -744.75481    54942.806   -9678.9608     2241.896   -7437.0648   -208.07166 
   71000    296.37496   -668.95212    54757.322   -9711.4023    2241.2808   -7470.1214   -60.747779 
   71100    289.61585   -777.05528    54603.504   -9721.8582    2190.1663    -7531.692    283.26113 
   71200    293.16748   -24.249835    54447.468   -9791.1154    2217.0249   -7574.0905   -125.43014 
   71300    295.94491   -651.15938    54367.333   -9779.7668    2238.0287   -7541.7381   -256.30051 
   71400     296.8614   -107.42771     54243.08   -9686.5777    2244.9595   -7441.6182     199.0369 
   71500    298.35972    11.111037    54088.249   -9690.3577    2256.2902   -7434.0675    23.436971 
   71600    299.68834    114.47693    53938.705   -9705.6631    2266.3377   -7439.3255    80.115624 
   71700    296.53579   -278.60272    54040.188   -9682.4823    2242.4971   -7439.9852    75.433244 
   71800    302.50849    235.46166    54193.313   -9708.7971    2287.6645   -7421.1326   -63.053085 
   71900    300.65845    593.02834    54287.515   -9666.2361    2273.6739   -7392.5622   -22.278164 
   72000     297.9614    449.96921    54301.011   -9648.1843     2253.278   -7394.9063   -130.51636 
   72100    295.39192   -41.885233     54326.76   -9669.2793    2233.8468   -7435.4325   -105.97732 
   72200    294.68316    252.84534    54290.379   -9711.8867    2228.4869   -7483.3998    184.15467 
   72300      295.718    145.72169    54136.045   -9700.9463    2236.3127   -7464.6336   -289.42285 
   72400    302.76132   -183.30619    53846.888   -9695.3894    2289.5765   -7405.8129    185.67423 
   72500     304.5329   -280.46126    53739.857   -9645.0623    2302.9737   -7342.0886     96.33534 
   72600    300.51936   -783.36809    53881.292   -9683.4765    2272.6221   -7410.8544   -73.581591 
   72700    291.92221   -331.76116    54006.907   -9666.8587    2207.6077    -7459.251   -2.9590343 
   72800    293.86641   -355.96622    54165.174   -9690.7122    2222.3104   -7468.4018    19.952759 
   72900    295.19001   -80.336667    54353.069   -9662.8186    2232.3199   -7430.4987    166.55743 
   73000    310.13936   -439.74308    54517.042     -9732.97    2345.3715   -7387.5985   -168.65974 
   73100    306.96933    -220.9974    54582.613   -9680.8079    2321.3988   -7359.4091    384.07754 
   73200    295.86435   -101.16172    54633.089   -9600.8599    2237.4194   -7363.4405    91.350931 
   73300    301.08065   -19.301144     54622.03   -9657.6693    2276.8668   -7380.8025     168.5071 
   73400    298.14451    565.27336    54419.979   -9690.1205    2254.6627   -7435.4578    53.351944 
   73500    295.03733    55.158054    54362.596   -9716.9832    2231.1653   -7485.8179   -10.236889 
   73600     295.8819    296.97026    54314.797   -9741.8908    2237.5521   -7504.3387   -84.853132 
   73700    302.16531    326.00168    54214.232   -9710.0149    2285.0693   -7424.9456   -143.79174 
   73800     300.4268    69.480826    54137.025    -9643.708    2271.9221   -7371.7859    205.92363 
   73900    296.84891   -137.41944    54064.119   -9616.2931     2244.865   -7371.4281   -58.755687 
   74000    300.55993    -457.0529     54101.26    -9639.862    2272.9289   -7366.9331    148.82508 
   74100    286.36188   -283.27253     54194.88   -9607.0136    2165.5588   -7441.4548   -5.1954802 
   74200    298.14643   -533.72105    54206.983   -9751.8832    2254.6772   -7497.2059    101.43945 
   74300    296.30073   -88.470162    54054.037   -9715.1945    2240.7195    -7474.475   -33.271162 
   74400    304.71678   -104.77451    53760.837   -9691.9099    2304.3643   -7387.5456    266.39106 
   74500    304.52517    538.82186     53450.83   -9668.1335    2302.9153   -7365.2182   -225.01234 
   74600    293.38038    176.75984      53335.9   -9641.3056    2218.6348   -7422.6708   -5.7570421 
   74700    298.83228   -42.530819    53563.915   -9694.5739    2259.8638     -7434.71    44.056526 
   74800    294.66681   -419.22788    53869.877    -9667.979    2228.3633   -7439.6157    39.366831 
   74900    299.70823   -75.023287      54000.1   -9689.5439     2266.488   -7423.0559   -114.92451 
   75000    301.04359    88.133546    54094.291   -9644.1523    2276.5865   -7367.5658   -87.835685 
   75100     301.2054    357.61938    54186.723   -9568.6145    2277.8101   -7290.8044      154.935 
   75200    307.28385    146.57723    54451.784   -9692.1313    2323.7773    -7368.354    35.564406 
   75300    297.35214    76.930818    54662.796   -9668.1251    2248.6705   -7419.4546   -307.63021 
   75400    295.51374   -558.24881    54582.736   -9656.2355     2234.768   -7421.4675   -64.021643 
   75500    302.95735    146.39758    54191.072   -9694.7049    2291.0589    -7403.646    149.89808 
   75600    299.28885    110.64256    53885.456   -9709.4531    2263.3166   -7446.1365    83.702709 
   75700    300.14645   -189.28162    53770.712   -9789.3465     2269.802   -7519.5445   -176.29999 
   75800    294.46651   -527.55243    53775.086   -9773.4121    2226.8486   -7546.5635    84.954407 
   75900    291.61337   -356.52832    53774.451   -9706.3789    2205.2722   -7501.1067     15.02945 
   76000    303.08913     430.0058    53780.185   -9756.4756    2292.0555   -7464.4201    272.77163 
   76100    292.22363   -237.89214    53964.616   -9680.1055    2209.8872   -7470.2183    103.88828 
   76200    286.43431   -230.04398    54076.047   -9653.2862    2166.1065   -7487.1797    175.60785 
   76300    302.52429    154.87697    54076.431   -9699.9573     2287.784   -7412.1733    -50.91949 
   76400    298.96008    408.41259    54041.352   -9679.8635    2260.8303   -7419.0332    57.443279 
   76500    291.62901    185.46646    54002.928   -9654.3442    2205.3905   -7448.9537   -21.900129 
   76600    295.11316    5.0920741    54008.569   -9713.9371    2231.7387   -7482.1985     -18.5439 
   76700    301.59457   -159.57981    53899.456   -9721.7422    2280.7532    -7440.989    212.53581 
   76800    303.13447    637.22803    53796.913   -9682.6151    2292.3983   -7390.2167   -27.081815 
   76900      301.098    81.165049     53990.73   -9688.5486    2276.9979   -7411.5507    92.322145 
   77000    293.57463   -523.39467    54312.057   -9718.5572    2220.1039   -7498.4533    78.056443 
   77100    286.51224   -334.85647    54426.384   -9686.0569    2166.6959   -7519.3611    -74.06045 
   77200    295.17164   -104.43877    54302.127   -9669.2259     2232.181   -7437.0449    142.78748 
   77300    302.51802   -3.8881003    54137.329   -9712.0295    2287.7366   -7424.2929    44.011945 
   77400    301.37138   -588.58984    53984.313    -9709.994    2279.0654   -7430.9286   -131.90186 
   77500    292.43119   -248.14183    53907.116   -9659.4677    2211.4568   -7448.0109    440.02042 
   77600     299.5902    333.31474    53842.441   -9706.4215    2265.5955    -7440.826   -63.834927 
   77700    299.26507   -20.255251    54003.943   -9714.7437    2263.1368   -7451.6069    213.99395 
   77800    291.30954   -466.37287    54288.007   -9657.0241    2202.9746   -7454.0496   -27.091476 
   77900    302.90324    206.76638    54472.619   -9690.1839    2290.6498   -7399.5341    11.334728 
   78000    302.52542    125.32386    54614.131   -9640.6916    2287.7926    -7352.899    175.72747 
   78100    298.16076   -181.73344    54764.759   -9657.9926    2254.7856    -7403.207    106.72864 
   78200    288.46704   -105.95085    54920.681   -9643.4432    2181.4787   -7461.9646    -191.9005 
   78300    299.51793    54.769962    54959.951   -9719.1195     2265.049   -7454.0705   -35.538962 
   78400    302.74284    402.57233    54758.828   -9706.0542    2289.4368   -7416.6174   -42.566057 
   78500    296.75257   -37.417654    54534.776   -9659.4516    2244.1365   -7415.3151     31.48865 
   78600    295.45655   -273.14342     54522.24    -9693.988    2234.3355   -7459.6525    418.91951 
   78700    287.57933   -212.39825    54571.067   -9709.3486    2174.7655    -7534.583   -10.725629 
   78800    290.28425   -34.061415    54453.331   -9695.5051     2195.221   -7500.2842    190.74652 
   78900    302.17853   -336.32881    54277.362   -9717.0754    2285.1693   -7431.9061    420.94428 
   79000    299.47456    -259.6207    54274.329    -9689.387     2264.721   -7424.6661   -280.10101 
   79100    297.03023   -234.22093    54391.402   -9653.8093    2246.2362   -7407.5731   -99.634245 
   79200    304.09683    253.19668    54327.839   -9656.5377     2299.676   -7356.8617     217.6799 
   79300    302.75322   -283.34955    54376.478   -9649.5564    2289.5152   -7360.0412   -54.933301 
   79400    296.20428   -320.30643    54328.221   -9698.8948    2239.9901   -7458.9047   -50.377171 
   79500    295.80037    295.94449    54193.408   -9732.1426    2236.9356    -7495.207   -181.25052 
   79600    289.98149    299.77309    54143.087   -9720.9097    2192.9314   -7527.9783    92.004256 
   79700    299.37257     19.58114    54125.453   -9722.2708    2263.9497    -7458.321    145.03077 
   79800    305.31838    29.764426    54252.094     -9701.94    2308.9138   -7393.0262    227.83728 
   79900    303.66482    111.48804     54457.66   -9714.7094    2296.4091   -7418.3003   -83.762725 
   80000    289.59271   -109.80727    54513.766   -9616.9042    2189.9913   -7426.9128    65.550536 
   80100    294.59641     394.9257    54431.042   -9664.2062    2227.8309   -7436.3754   -73.821035 
   80200    299.49877    44.572121    54411.283   -9663.6992    2264.9041   -7398.7952   -32.323654 
   80300    298.96661   -254.81499    54741.817   -9595.8524    2260.8797   -7334.9727   0.37472258 
   80400    307.37138   -234.16677    55172.397   -9627.9744    2324.4392   -7303.5352   -199.76747 
   80500    301.75833   -835.09548    55470.465    -9660.068    2281.9916   -7378.0763    78.787605 
   80600    304.91628   -1023.9712    55571.661   -9732.6562     2305.873   -7426.7832    1.0312867 
   80700    298.59117   -500.70979    55364.855   -9668.9542    2258.0405   -7410.9137    119.30422 
   80800    293.46783    619.57675    54920.862   -9618.1844    2219.2962   -7398.8883   -270.28619 
   80900    298.44126   -390.50313    54682.115    -9679.987    2256.9068   -7423.0802    23.390905 
   81000    289.60191   -271.31068    54614.212   -9713.4562    2190.0609   -7523.3953   -9.0072066 
   81100    294.97052     149.6132    54652.677    -9736.499      2230.66    -7505.839    96.930508 
   81200    293.70017   -93.382506    54694.488   -9661.3607    2221.0532   -7440.3075   -63.869165 
   81300    309.52055    -476.0388    54570.215   -9738.2403    2340.6919   -7397.5484   -317.88703 
   81400    300.40007   -474.73606     54355.71   -9688.7304      2271.72   -7417.0104    153.89917 
   81500    299.23104   -415.41908    54367.711   -9730.7787    2262.8794   -7467.8992    101.95914 
   81600    289.87747    -847.1148    54426.705   -9738.5327    2192.1448    -7546.388    107.33894 
   81700    299.08349   -364.10944    54380.206   -9828.6812    2261.7636   -7566.9176    145.08804 
   81800    292.95055    -41.83889     54286.53   -9752.8869    2215.3843   -7537.5025    126.60896 
   81900    301.39702    42.131194    54289.148    -9767.088    2279.2592   -7487.8288    12.017225 
   82000    296.93972    178.91357    54416.618   -9716.7749    2245.5517   -7471.2232     87.38058 
   82100    293.74984   -574.27935     54478.67    -9666.335    2221.4288   -7444.9062    71.908439 
   82200    296.66782   -323.89122    54524.369   -9744.1266    2243.4955   -7500.6311    109.83061 
   82300    295.05354    43.858757    54457.266   -9806.9639    2231.2879   -7575.6761    76.125509 
   82400     289.5574    276.72392    54240.142   -9773.3856    2189.7243   -7583.6614     253.0554 
   82500    301.75594   -278.61314    53942.469   -9820.5963    2281.9735   -7538.6228    225.96541 
   82600    301.68696    152.44161    53750.319   -9753.5114    2281.4519   -7472.0595    255.61255 
   82700    299.34736     662.3955    53637.419   -9734.0769     2263.759   -7470.3179    89.793874 
   82800    301.97313     710.9864    53817.145   -9630.4132     2283.616   -7346.7972   -34.572712 
   82900    303.45501   -302.92612    54096.438   -9616.3021    2294.8224   -7321.4797   -240.83148 
   83000    295.42388   -102.48689    54139.325   -9599.2889    2234.0885   -7365.2005    158.78105 
   83100    299.70449   -678.81709    54089.931   -9705.0938    2266.4598    -7438.634   -20.276614 
   83200    292.71322   -213.77472    53758.879   -9672.0524    2213.5896   -7458.4627    86.198417 
   83300    300.24444    19.612385    53449.599    -9678.864     2270.543    -7408.321    13.298261 
   83400    300.83865   -547.71326    53551.514   -9703.2418    2275.0367   -7428.2051    275.19083 
   83500    291.09287    436.48789    53828.933   -9714.2068     2201.336   -7512.8709    97.812095 
   83600    290.69538    507.24294     54210.04   -9758.2499      2198.33   -7559.9199   -63.123792 
   83700     291.5129   -102.90528    54386.095   -9721.9269    2204.5124   -7517.4144   -104.69488 
   83800    293.43689   -479.35788    54439.785   -9682.5726    2219.0623   -7463.5104    153.48382 
   83900    306.44914   -75.059358    54594.771   -9711.6045     2317.465   -7394.1395   -92.066963 
   84000    300.30915   -657.69009    54739.293   -9660.8533    2271.0325   -7389.8208      69.3852 
   84100    302.78364    -110.3344    54694.667   -9682.0057    2289.7453   -7392.2604    2.2351812 
   84200    295.32833   -369.88753    54492.686   -9642.4022    2233.3659   -7409.0364    305.16017 
   84300    297.90255    383.86771    54227.635   -9686.6649    2252.8329    -7433.832   -32.871322 
   84400    291.61907    336.66122    54110.701   -9692.4536    2205.3153   -7487.1382    108.36961 
   84500    290.58061    12.925134    54108.519   -9716.8192    2197.4621   -7519.3571   -27.462237 
   84600    299.11833   -714.12183    54223.935   -9700.0825     2262.027   -7438.0554   -65.929119 
   84700    299.45597   -69.308049    54153.618   -9664.8491    2264.5804   -7400.2687   -194.43698 
   84800    305.13274    42.598593    53933.609    -9741.504    2307.5099   -7433.9941   -167.77009 
   84900    298.37555   -459.65089    53741.557   -9726.5394    2256.4099   -7470.1294   -40.926794 
   85000    299.94201   -317.02685    53633.673   -9764.1468     2268.256   -7495.8908    279.86198 
   85100     286.2852    159.46973    53605.404   -9717.6005    2164.9789   -7552.6216    29.621432 
   85200    289.18826    141.52031    53583.474   -9802.6462    2186.9327   -7615.7135    116.34588 
   85300    295.59895   -172.02977    53598.102   -9810.3611    2235.4124   -7574.9487    194.27355 
   85400    291.35072    120.13179    53707.214   -9667.3127     2203.286   -7464.0268   -86.943857 
   85500    302.20731   -116.18575    53917.599   -9701.1927    2285.3869   -7415.8058    40.627997 
   85600    297.98666    366.70708    54018.574   -9652.2079     2253.469   -7398.7389   -77.974916 
   85700    296.92394   -313.92539    54087.959   -9719.1058    2245.4324   -7473.6734    352.12307 
   85800    294.94258   -308.93508    54073.016   -9739.1454    2230.4487   -7508.6967    56.703303 
   85900    295.65325     125.7535    54100.216   -9702.2293     2235.823   -7466.4062    152.43566 
   86000    305.48409   -165.06833    54269.789   -9688.8659    2310.1669    -7378.699    96.997909 
   86100    295.19446   -227.64478    54494.237   -9615.6993    2232.3535   -7383.3459   -259.69885 
   86200    301.53007   -240.50718     54593.93   -9724.1878    2280.2654   -7443.9224   -98.207892 
   86300    288.19413   -75.720797    54629.636   -9664.2271    2179.4148   -7484.8123   -356.61884 
   86400    296.05375   -204.11317     54602.24   -9699.4633    2238.8518   -7460.6115   -113.30199 
   86500    288.15209   -65.222584    54438.658   -9616.4468    2179.0969   -7437.3499   -241.61851 
   86600    305.99126   -337.88852     54025.37   -9701.0693    2314.0023    -7387.067    328.99501 
   86700    301.00704   -136.46613    53502.396    -9675.266    2276.3101    -7398.956   -239.08462 
   86800    299.25741     299.1894    53084.691   -9748.6435    2263.0788   -7485.5646   -236.83979 
   86900    294.07267    112.16992    52850.341   -9738.5484    2223.8702   -7514.6782   -237.02868 
   87000    292.96002   -113.71292    52863.196   -9753.4057     2215.456   -7537.9497    121.06901 
   87100    298.63988   -620.81702    52946.683   -9763.0411    2258.4089   -7504.6322    46.501282 
   87200    300.12939    8.0811456    53009.256   -9693.6494     2269.673   -7423.9764     77.02746 
   87300    306.19438   -14.786649    53193.094    -9685.361    2315.5384   -7369.8227   -142.61196 
   87400    300.85609    47.403816     53526.41   -9669.7167    2275.1685   -7394.5481    43.542923 
   87500    295.78325    -569.0582    53840.855   -9761.1738    2236.8061   -7524.3677    39.831973 
   87600    292.57706    -187.6871    53980.114   -9749.6394    2212.5599   -7537.0794   -45.811868 
   87700    291.20332   -577.77912    54039.447   -9683.0941    2202.1712   -7480.9229    128.63045 
   87800    297.65996   -120.09578    54067.779   -9640.9697    2250.9984   -7389.9712    187.80428 
   87900    298.70189    338.70887    54055.991   -9617.8248    2258.8778    -7358.947    157.48428 
   88000    304.32431     98.99162     54045.74   -9649.5067    2301.3964   -7348.1104   -305.89357 
   88100    299.89345   -74.617329    54158.013   -9708.8915    2267.8888   -7441.0028    112.51391 
   88200    292.51265   -41.408519    54241.803   -9710.0982    2212.0729   -7498.0254    41.488583 
   88300    291.16226    -177.6618    54280.861   -9676.8871    2201.8608   -7475.0263   -56.421237 
   88400     296.8784   -293.12448    54272.973   -9631.8405     2245.088   -7386.7525    32.293159 
   88500    298.57343   -311.03442    54265.763   -9640.3344    2257.9063   -7382.4281   -75.502464 
   88600    303.95206   -199.40281    54372.765   -9686.8274    2298.5812   -7388.2462   -133.43132 
   88700     290.9196   -143.86729    54427.962   -9708.2074    2200.0257   -7508.1817   -39.530115 
   88800    292.09851    308.88292    54435.949   -9726.3531     2208.941   -7517.4122    24.147938 
   88900    301.06533   -40.405