3438
Atoms. Timestep: 0
3 25.7782 21.6786 26.8257
4 26.3738 20.9188 25.6436
4 25.6432 19.5905 25.4159
4 26.2436 18.8297 24.228
4 25.5123 17.5009 24.0002
3 26.1123 16.7388 22.8128
3 0.649175 1.65022 20.8622
4 1.3826 0.705457 19.9143
4 0.39712 29.9475 19.0175
4 1.13674 28.9994 18.0665
4 0.150454 28.2415 17.1691
3 0.88894 27.2925 16.2181
3 11.3242 26.2869 17.9186
4 11.788 25.0324 18.6536
4 10.7978 23.8788 18.457
4 11.2664 22.6202 19.1964
4 10.2756 21.4661 18.9993
3 10.7429 20.207 19.7388
3 8.94643 14.513 25.3223
4 7.7449 13.7914 24.7184
4 6.93425 13.0676 25.7995
4 5.7281 12.3438 25.1898
4 4.91701 11.62 26.2718
3 3.71088 10.8952 25.6632
3 26.8986 18.7739 10.917
4 27.2296 17.4884 10.1641
4 28.1539 16.5866 10.9901
4 28.4846 15.2962 10.2313
4 29.4092 14.394 11.0582
3 29.7412 13.1034 10.3001
3 5.2024 15.4905 9.49854
4 6.01438 14.2761 9.05693
4 5.43352 13.6575 7.78031
4 6.25119 12.438 7.33923
4 5.66994 11.8194 6.06169
3 6.48647 10.5993 5.61996
3 27.0285 19.1359 22.7156
4 25.9485 18.6482 23.6773
4 25.4588 17.2472 23.2938
4 24.3741 16.7601 24.2615
4 23.8845 15.3581 23.8778
3 22.7993 14.8702 24.8445
3 0.992992 2.52125 87.9812
4 0.349836 1.68978 89.0876
4 0.9529 2.02911 0.455395
4 0.304912 1.19238 1.56463
4 0.908305 1.53236 2.93315
3 0.261488 0.695746 4.04318
3 4.10035 25.0569 16.8815
4 2.69679 24.8653 17.4493
4 1.64047 25.5001 16.5377
4 0.231764 25.3061 17.1107
4 29.175 25.941 16.1981
3 27.7659 25.7482 16.7705
3 25.3034 19.2218 10.3493
4 26.7737 18.8139 10.3821
4 27.012 17.6867 11.3933
4 28.4897 17.2792 11.4239
4 28.7278 16.1512 12.4356
3 0.205266 15.7432 12.4676
3 29.4483 21.9736 29.7487
4 29.8893 21.1558 28.5379
4 1.41779 21.0851 28.4459
4 1.85766 20.263 27.2288
4 3.38708 20.1922 27.1372
3 3.82817 19.3708 25.9201
3 11.7471 1.93246 19.728
4 11.4479 0.45834 19.986
4 12.6664 29.743 20.5804
4 12.3628 28.2626 20.8385
4 13.5821 27.5472 21.4335
3 13.2799 26.0664 21.6915
3 11.7797 17.9082 12.3147
4 11.5318 19.192 13.1018
4 12.8526 19.8414 13.5302
4 12.6003 21.1305 14.3206
4 13.9221 21.7803 14.7488
3 13.671 23.0693 15.5399
3 18.2198 6.45661 10.2653
4 17.623 6.53768 8.86302
4 18.614 6.02792 7.8104
4 18.0117 6.1106 6.40297
4 19.0033 5.60019 5.35002
3 18.4024 5.68297 3.94203
3 1.86275 28.3117 28.9761
4 1.83271 26.8384 29.3732
4 0.504194 26.1857 28.9747
4 0.477015 24.706 29.3748
4 29.1477 24.0531 28.9757
3 29.1192 22.5734 29.3759
3 28.4727 7.98581 4.58557
4 28.6827 8.14716 3.08258
4 28.034 6.99494 2.30712
4 28.2466 7.15979 0.797805
4 27.5972 6.00693 0.0221552
3 27.8097 6.17038 88.5127
3 24.9748 6.464 16.8926
4 25.5854 6.68198 15.511
4 25.9878 5.3498 14.8682
4 26.6007 5.57199 13.4807
4 27.003 4.23885 12.8377
3 27.6167 4.45984 11.4502
3 16.8319 22.0951 12.2242
4 17.8013 22.9243 11.3865
4 18.2739 22.1442 10.1544
4 19.2474 22.9797 9.31499
4 19.7198 22.199 8.08212
3 20.694 23.0333 7.24223
3 9.95187 26.5041 28.7239
4 11.4778 26.484 28.7362
4 12.0089 25.123 29.2004
4 13.5418 25.106 29.2117
4 14.0729 23.744 29.6759
3 15.6059 23.7259 29.6882
3 13.4917 26.2689 24.2905
4 13.4721 26.3017 22.7649
4 13.8419 27.6927 22.2373
4 13.8214 27.7225 20.7046
4 14.1917 29.1143 20.1771
3 14.1709 29.1456 18.6444
3 16.7159 3.97918 9.28309
4 17.0614 5.1451 10.2053
4 17.7358 4.65205 11.4905
4 18.0815 5.82536 12.4148
4 18.7566 5.33174 13.7005
3 19.1023 6.50421 14.6259
3 6.11983 7.53574 9.17754
4 7.64436 7.4918 9.12279
4 8.17078 6.1007 9.4936
4 9.70231 6.0597 9.43772
4 10.2287 4.66759 9.80848
3 11.7603 4.62555 9.75356
3 12.6245 1.74396 21.4188
4 14.1488 1.81272 21.3927
4 14.7697 0.491738 21.861
4 16.3008 0.563885 21.8338
4 16.9217 29.2419 22.3021
3 18.453 29.3131 22.2759
3 5.20188 0.883156 27.2252
4 6.72619 0.81935 27.264
4 7.21012 29.436 27.7134
4 8.74154 29.375 27.7514
4 9.22544 27.9907 28.2008
3 10.7568 27.9287 28.2397
3 16.9102 8.84887 11.9892
4 16.8657 7.33195 11.8276
4 16.7513 6.63446 13.1878
4 16.7069 5.11097 13.0223
4 16.5922 4.41337 14.3834
3 16.5483 2.88971 14.2192
3 27.1989 6.49179 19.1275
4 27.5027 6.98351 17.715
4 28.9834 6.78957 17.3689
4 29.2856 7.28438 15.9497
4 0.767081 7.08991 15.6036
3 1.07055 7.58497 14.1847
3 20.954 13.326 27.6528
4 21.955 12.3183 27.0945
4 22.4396 12.7346 25.7011
4 23.4448 11.7205 25.1431
4 23.9297 12.1376 23.749
3 24.9346 11.1238 23.1896
3 26.0113 25.3473 25.4178
4 27.3467 25.3574 26.1565
4 27.3299 24.3853 27.3416
4 28.6726 24.3977 28.0816
4 28.6556 23.4247 29.2672
3 29.9976 23.4366 30.0084
3 1.09402 0.41055 28.4502
4 2.54381 29.9511 28.3231
4 2.64011 28.4213 28.3161
4 4.09749 27.9629 28.1883
4 4.1935 26.4321 28.181
3 5.65057 25.9725 28.0539
3 21.2262 27.1738 30.3507
4 20.5035 26.3471 29.2908
4 19.6313 25.2635 29.935
4 18.9067 24.4348 28.8679
4 18.0338 23.351 29.5127
3 17.3092 22.5211 28.4465
3 19.1053 16.8915 24.6357
4 17.7768 17.1917 23.9472
4 17.9755 18.1204 22.7439
4 16.6393 18.4202 22.0545
4 16.8385 19.3491 20.8504
3 15.5029 19.6501 20.1604
3 7.16732 8.03916 28.8119
4 6.48144 7.39681 27.6093
4 7.49569 7.05568 26.5117
4 6.8038 6.41066 25.3052
4 7.81893 6.06916 24.2073
3 7.12807 5.42461 23
3 23.9895 17.8188 13.5305
4 25.4443 18.2348 13.7298
4 26.1868 17.2366 14.6252
4 27.6477 17.6572 14.8235
4 28.3906 16.6579 15.7192
3 29.8515 17.0779 15.9188
3 13.2652 29.8499 6.7153
4 14.3672 29.8269 5.65981
4 14.1583 28.6771 4.66775
4 15.2668 28.6566 3.60885
4 15.0574 27.5063 2.61619
3 16.1656 27.4844 1.5571
3 11.2231 12.2866 88.6561
4 11.7723 11.4189 89.7851
4 11.0918 10.0456 89.8076
4 11.6455 9.17634 0.942619
4 10.9646 7.80215 0.964727
3 11.5171 6.9322 2.0998
3 22.8286 2.872 20.2422
4 22.3031 1.56688 20.8334
4 23.1686 1.10592 22.0116
4 22.6382 29.7948 22.6034
4 23.5042 29.334 23.7824
3 22.9752 28.0226 24.3746
3 26.4113 7.62937 23.3666
4 26.6043 8.79801 22.4043
4 26.8461 10.1065 23.1654
4 27.0396 11.2784 22.1961
4 27.2818 12.5874 22.9579
3 27.4749 13.7603 21.9897
3 14.4003 8.28672 29.843
4 13.2342 8.00281 28.9002
4 13.7344 7.58562 27.5126
4 12.5609 7.30114 26.5679
4 13.0617 6.88344 25.1797
3 11.889 6.59927 24.2339
3 11.0936 19.9752 28.5103
4 12.6138 19.9685 28.3753
4 13.2003 18.6172 28.7992
4 14.7273 18.6136 28.6625
4 15.3138 17.2612 29.0864
3 16.8409 17.2567 28.9508
3 14.1202 22.5373 1.76951
4 15.0346 21.347 2.04543
4 15.0254 20.3596 0.872926
4 15.9448 19.1651 1.15301
4 15.9356 18.1775 89.9795
3 16.8541 16.9822 0.258757
3 8.15593 12.1785 19.5265
4 9.55553 12.5555 20.0041
4 10.0511 11.5858 21.083
4 11.4571 11.967 21.5607
4 11.9528 10.9965 22.64
3 13.3585 11.3771 23.119
3 29.2774 26.61 12.1292
4 0.803362 26.592 12.1407
4 1.33653 25.2281 12.5938
4 2.86953 25.2131 12.6044
4 3.4027 23.8482 13.0574
3 4.93569 23.8322 13.069
3 18.9969 25.0149 6.93512
4 20.5229 24.9937 6.94051
4 21.055 23.6301 7.39579
4 22.588 23.6118 7.40018
4 23.1201 22.2472 7.85546
3 24.6531 22.228 7.86085
3 10.7197 4.26185 20.1875
4 12.0071 4.94571 19.7357
4 13.2406 4.21667 20.2805
4 14.5321 4.90588 19.825
4 15.7662 4.17601 20.3699
3 17.0583 4.86472 19.9156
3 11.6832 2.4262 12.6948
4 13.1982 2.53486 12.8437
4 13.7873 1.2548 13.4472
4 15.3091 1.36696 13.5956
4 15.8983 0.0859134 14.1991
3 17.4201 0.197147 14.3486
3 20.7797 24.6136 27.9138
4 20.7304 23.6509 26.7306
4 21.1394 24.352 25.4303
4 21.0888 23.3826 24.2437
4 21.4984 24.0843 22.9428
3 21.4476 23.1159 21.7553
3 13.5221 6.2659 22.8156
4 15.0357 6.1895 22.6354
4 15.5553 4.77552 22.9191
4 17.0758 4.70193 22.7373
4 17.5953 3.28696 23.0209
3 19.1159 3.21229 22.84
3 7.17006 11.8628 5.87049
4 7.15798 13.3594 5.57164
4 6.49994 14.1452 6.71148
4 6.48929 15.648 6.40842
4 5.83109 16.4341 7.54923
3 5.8193 17.937 7.24699
3 4.73576 9.81512 15.428
4 4.15086 8.68876 16.2756
4 2.95673 8.03203 15.5737
4 2.37139 6.9011 16.4274
4 1.1768 6.24399 15.7248
3 0.590194 5.11325 16.5779
3 29.8521 15.3259 24.3835
4 28.9309 14.119 24.5379
4 29.6711 12.9366 25.1734
4 28.7432 11.7259 25.3272
4 29.484 10.5431 25.9634
3 28.5573 9.33144 26.1171
3 27.6904 4.25021 13.7586
4 29.2133 4.29769 13.8452
4 29.7767 2.98312 14.3968
4 1.30658 3.03386 14.4826
4 1.87002 1.71829 15.0343
3 3.39987 1.76808 15.1211
3 8.18299 0.401994 17.9044
4 9.53417 29.8919 17.4112
4 9.74946 28.4266 17.8066
4 11.1074 27.9171 17.3098
4 11.3224 26.4508 17.7053
3 12.6804 25.9404 17.2096
3 26.1664 24.6205 8.36516
4 25.874 24.9242 9.83191
4 25.1304 26.2561 9.98285
4 24.8381 26.5584 11.4572
4 24.0938 27.891 11.6078
3 23.8015 28.1947 13.0819
3 28.157 17.4293 25.3728
4 29.5356 16.886 25.738
4 29.4799 15.3796 26.0163
4 0.866054 14.8368 26.3828
4 0.810082 13.3294 26.6609
3 2.19564 12.7855 27.0281
3 10.1121 18.2706 31.302
4 8.80939 18.9152 30.8366
4 8.95195 19.4911 29.4231
4 7.64192 20.1378 28.9584
4 7.78479 20.7137 27.544
3 6.47547 21.3613 27.0785
3 17.4271 27.2896 12.7739
4 18.806 27.7433 13.2451
4 18.694 28.7258 14.4164
4 20.0805 29.1797 14.8875
4 19.9681 0.162542 16.0597
3 21.3541 0.617686 16.5313
3 15.7489 19.9392 13.3294
4 16.8592 20.9823 13.2386
4 18.1198 20.393 12.5956
4 19.2333 21.443 12.5058
4 20.4943 20.8532 11.8622
3 21.6088 21.9023 11.7724
3 7.19945 7.44511 7.3811
4 8.11628 8.66415 7.33138
4 9.23084 8.47549 6.29603
4 10.1501 9.70152 6.24841
4 11.265 9.51258 5.21216
3 12.1853 10.7378 5.16408
3 8.76645 22.3216 6.81914
4 10.2442 22.2042 6.45624
4 10.8585 20.9297 7.04625
4 12.3428 20.8146 6.68006
4 12.9571 19.5391 7.27028
3 14.4416 19.4232 6.90525
3 16.158 20.9158 15.3517
4 17.5766 21.4727 15.2718
4 18.6159 20.3785 15.5408
4 20.0398 20.941 15.4598
4 21.0794 19.8458 15.7287
3 22.5037 20.4073 15.6486
3 16.1113 29.2349 3.16008
4 15.607 0.295459 2.18544
4 14.2769 29.8744 1.55022
4 13.7729 0.941618 0.571775
4 12.4419 0.520164 89.9366
3 11.9372 1.58641 88.9574
3 1.44307 10.5523 10.6175
4 0.551731 9.95927 11.7051
4 0.179428 11.0158 12.7515
4 29.2841 10.4171 13.8426
4 28.9115 11.4745 14.8893
3 28.0167 10.8768 15.9813
3 1.41271 21.6338 20.1936
4 2.7333 22.3676 19.9776
4 3.92697 21.4252 20.1692
4 5.25194 22.1651 19.9516
4 6.44609 21.2218 20.1431
3 7.77173 21.9608 19.9263
3 26.4922 1.73351 17.3134
4 26.6268 3.24763 17.4491
4 27.9527 3.62669 18.1186
4 28.085 5.14809 18.2536
4 29.4119 5.52707 18.9232
3 29.5451 7.04831 19.0592
3 10.7606 8.32367 18.4123
4 11.1246 6.84476 18.5091
4 12.3114 6.50713 17.5995
4 12.6748 5.02103 17.6989
4 13.8624 4.68358 16.7889
3 14.2263 3.19751 16.887
3 15.9489 8.20856 11.3254
4 17.1093 8.30617 10.339
4 16.6193 8.16385 8.89352
4 17.787 8.2623 7.90507
4 17.2964 8.12018 6.45884
3 18.4634 8.21785 5.46945
3 17.9304 14.4009 7.25477
4 19.0362 13.6419 6.52657
4 19.6882 14.515 5.44847
4 20.7985 13.75 4.7188
4 21.4509 14.624 3.64037
3 22.5609 13.8597 2.90955
3 12.2049 6.29139 10.4373
4 13.6351 5.92526 10.824
4 13.6921 4.54412 11.4865
4 15.1299 4.17918 11.8738
4 15.1866 2.79707 12.5364
3 16.624 2.43129 12.9247
3 23.4405 19.7897 27.2832
4 24.3312 19.9542 28.5115
4 25.8078 19.7479 28.155
4 26.6999 19.9137 29.3907
4 28.1773 19.7076 29.0336
3 29.0704 19.8726 30.2687
3 28.4257 11.0643 29.1351
4 27.5251 9.98691 29.7329
4 26.3222 9.70608 28.8252
4 25.4194 8.62358 29.4282
4 24.2161 8.34259 28.5197
3 23.3122 7.26061 29.122
3 23.8682 7.67307 11.5124
4 24.5686 6.35575 11.8336
4 25.1627 6.37595 13.2466
4 25.8656 5.0515 13.5662
4 26.4597 5.0719 14.9802
3 27.1634 3.74811 15.3008
3 22.5195 7.91604 22.3558
4 21.3751 8.60137 23.0974
4 21.8631 9.85897 23.8255
4 20.7115 10.5451 24.5693
4 21.2 11.8036 25.2975
3 20.0492 12.4903 26.0423
3 13.1594 29.5976 13.8605
4 13.7587 28.5474 12.9293
4 12.6879 27.9477 12.0109
4 13.2929 26.8932 11.0768
4 12.2213 26.2935 10.1577
3 12.825 25.2384 9.22353
3 6.05224 18.0247 9.92097
4 5.05496 17.3671 8.97115
4 5.48715 15.9395 8.61781
4 4.48352 15.2816 7.66368
4 4.91607 13.8531 7.31057
3 3.91345 13.1944 6.35592
3 8.82657 26.1831 24.1507
4 10.242 25.9021 24.6474
4 10.4237 24.4187 24.9883
4 11.8463 24.1395 25.4869
4 12.0279 22.6551 25.8276
3 13.4501 22.3749 26.3269
3 28.0492 14.1744 17.0288
4 27.9452 15.5576 16.3924
4 29.3195 16.0606 15.9361
4 29.2119 17.4502 15.2973
4 0.587025 17.9531 14.8406
3 0.480754 19.3429 14.2022
3 1.47292 10.8718 21.5511
4 2.80173 10.1344 21.6914
4 2.6049 8.61735 21.5935
4 3.94131 7.87948 21.7348
4 3.74408 6.36159 21.6365
3 5.07983 5.62258 21.7783
3 18.0134 0.671337 2.41714
4 18.3 2.16396 2.55506
4 19.0809 2.46026 3.84044
4 19.3673 3.96025 3.97618
4 20.1489 4.25635 5.26223
3 20.4354 5.75622 5.39937
3 20.2853 14.3985 1.06382
4 21.6023 13.6389 0.930822
4 21.3568 12.1455 0.687724
4 22.6814 11.3852 0.554576
4 22.4354 9.89099 0.311034
3 23.7594 9.12952 0.178334
3 13.5347 27.7328 9.72386
4 14.1769 27.1336 10.972
4 13.1125 26.6319 11.9544
4 13.7605 26.0307 13.207
4 12.6953 25.5285 14.1897
3 13.3422 24.9276 15.443
3 25.0861 22.4536 7.67127
4 25.6974 23.6458 8.40222
4 25.7294 24.8875 7.50398
4 26.3438 26.0832 8.24092
4 26.3755 27.3256 7.34202
3 26.9904 28.5219 8.07773
3 6.15917 16.4257 22.7419
4 7.04052 17.4515 23.4491
4 8.02992 16.7681 24.3998
4 8.91375 17.801 25.1086
4 9.90381 17.1169 26.0596
3 10.7878 18.1489 26.7695
3 12.8001 16.0308 2.25338
4 14.173 15.8519 1.61133
4 15.038 14.8776 2.41895
4 16.4164 14.6999 1.77161
4 17.2815 13.7247 2.57974
3 18.6604 13.5468 1.93366
3 10.8019 24.1196 15.6552
4 11.0999 24.1714 14.1594
4 12.3905 23.4141 13.8265
4 12.6872 23.4679 12.3234
4 13.9783 22.7098 11.9906
3 14.2764 22.7634 10.4877
3 7.7246 25.7022 21.8911
4 9.21544 26.0236 21.9477
4 9.99733 24.8992 22.6364
4 11.4944 25.2249 22.6918
4 12.2765 24.0996 23.3806
3 13.7738 24.4245 23.4372
3 11.301 16.0408 3.60503
4 12.3166 17.1351 3.92175
4 12.9152 16.9455 5.32014
4 13.9349 18.0461 5.63539
4 14.5339 17.8559 7.03451
3 15.5533 18.9564 7.35114
3 29.52 19.0039 3.72759
4 29.7739 18.4203 5.11472
4 28.4741 18.3294 5.92233
4 28.7323 17.7429 7.31509
4 27.4316 17.6518 8.1228
3 27.6887 17.066 9.51607
3 29.1926 7.87886 20.0053
4 0.691528 8.15047 20.0985
4 1.41894 6.99949 20.8027
4 2.92424 7.27519 20.8949
4 3.65183 6.12325 21.5992
3 5.15722 6.39813 21.6925
3 5.30955 19.9653 20.1436
4 5.63439 21.1619 21.0334
4 5.84976 20.727 22.4874
4 6.17585 21.9311 23.3787
4 6.39159 21.4956 24.8334
3 6.71716 22.699 25.7258
3 0.434794 11.4193 6.27174
4 29.8635 12.5224 7.15819
4 0.573026 12.5629 8.5164
4 29.9971 13.6719 9.40453
4 0.707377 13.7124 10.7633
3 0.131783 14.8207 11.6526
3 2.95704 17.2681 22.2233
4 1.99105 16.9271 23.3546
4 1.5756 15.4526 23.3008
4 0.605354 15.1131 24.4382
4 0.190107 13.6375 24.3844
3 29.2193 13.297 25.521
3 2.08434 27.0279 9.34623
4 2.65662 25.637 9.60499
4 1.68457 24.545 9.1441
4 2.26215 23.1491 9.4053
4 1.28946 22.0567 8.94375
3 1.86573 20.6602 9.20505
3 18.0034 7.27689 28.1664
4 17.6297 8.73187 28.4355
4 18.0747 9.63906 27.2828
4 17.6979 11.0998 27.556
4 18.1431 12.0072 26.4024
3 17.7673 13.4684 26.6748
3 18.8294 27.0266 10.8798
4 18.0879 26.2889 9.76848
4 17.3222 25.0817 10.3218
4 16.5784 24.3428 9.20325
4 15.8122 23.1352 9.75727
3 15.0685 22.3951 8.63943
3 4.21335 19.2926 1.53407
4 3.12386 18.4488 2.18986
4 2.27464 17.7276 1.13702
4 1.18121 16.8809 1.79874
4 0.331878 16.1591 0.745063
3 29.2376 15.3125 1.40563
3 28.8589 4.51217 3.42345
4 29.0635 5.74951 2.55383
4 28.5778 7.01478 3.27006
4 28.7846 8.2559 2.39413
4 28.2988 9.52175 3.11116
3 28.5045 10.7635 2.23589
3 10.8185 13.0313 25.0613
4 10.2034 13.4559 26.392
4 8.68915 13.6555 26.2622
4 8.07428 14.0819 27.6003
4 6.55908 14.2813 27.4702
3 5.94316 14.7084 28.8076
3 22.2617 25.1997 25.0427
4 23.1997 24.044 24.7058
4 22.5044 22.6923 24.9041
4 23.449 21.5333 24.5649
4 22.753 20.181 24.7631
3 23.6969 19.0212 24.4248
3 29.4688 5.0498 4.6274
4 28.642 5.69383 5.73682
4 27.815 6.86731 5.19946
4 26.9857 7.51214 6.31607
4 26.1581 8.68606 5.77803
3 25.3287 9.33212 6.89395
3 19.8846 11.8598 17.0907
4 21.3927 11.9828 17.2898
4 22.0129 10.6314 17.6624
4 23.5278 10.7581 17.8616
4 24.1481 9.40567 18.2342
3 25.6629 9.53126 18.4343
3 11.0903 26.4973 9.70707
4 12.4977 26.9382 10.0994
4 13.4239 25.7307 10.2834
4 14.8367 26.1768 10.6775
4 15.7633 24.9684 10.8612
3 17.1764 25.4132 11.2559
3 28.4004 5.1415 17.0332
4 29.4473 5.20945 18.1415
4 28.7906 5.15942 19.5258
4 29.8447 5.22785 20.6369
4 29.1873 5.17745 22.0218
3 0.240439 5.24645 23.1339
3 7.79923 16.6292 6.53984
4 9.25255 16.8954 6.92205
4 9.97455 15.5941 7.28966
4 11.434 15.8647 7.67309
4 12.1563 14.5624 8.04055
3 13.6158 14.8319 8.42479
3 25.9163 16.0875 29.7567
4 25.2969 16.0658 28.3621
4 24.7912 14.6638 28.0038
4 24.1696 14.6451 26.6024
4 23.6635 13.2422 26.2444
3 23.0422 13.2222 24.8429
3 28.757 19.3509 30.0042
4 28.8567 20.5155 29.023
4 0.259707 20.6048 28.412
4 0.356722 21.7755 27.4269
4 1.76056 21.8644 26.8155
3 1.85896 23.0352 25.8306
3 27.0547 17.7085 13.8526
4 28.5651 17.5779 14.0274
4 28.9446 16.1797 14.5283
4 0.462362 16.0516 14.7029
4 0.84179 14.6524 15.2037
3 2.35934 14.5233 15.3793
3 28.3926 27.0637 21.1728
4 28.2221 26.6642 19.7098
4 27.5322 25.301 19.586
4 27.3624 24.9024 18.1154
4 26.6718 23.5385 17.9918
3 26.502 23.1385 16.5216
3 21.5562 14.7221 10.8595
4 23.0698 14.8902 10.7601
4 23.8008 13.7447 11.4695
4 25.3209 13.9163 11.368
4 26.052 12.7699 12.0777
3 27.5723 12.9407 11.9773
3 19.1888 21.265 2.44575
4 20.3368 21.8009 1.5949
4 21.6942 21.4601 2.22047
4 22.8453 21.9997 1.36362
4 24.2032 21.6583 1.98965
3 25.3552 22.198 1.13393
3 18.9835 9.91234 15.3837
4 20.4906 10.0884 15.5476
4 21.1816 8.74102 15.786
4 22.6952 8.92109 15.9503
4 23.3865 7.57275 16.1884
3 24.9001 7.75164 16.3535
3 22.01 2.63646 19.4691
4 21.8758 3.61552 20.6321
4 21.748 5.05768 20.1284
4 21.6134 6.03872 21.2988
4 21.4852 7.48157 20.7946
3 21.3512 8.46365 21.9642
3 2.69023 7.77693 27.9565
4 4.01614 7.63157 27.215
4 5.18363 8.14707 28.0641
4 6.51402 7.99977 27.3166
4 7.68201 8.51535 28.1666
3 9.01295 8.36912 27.4198
3 13.7215 22.6443 22.7046
4 13.7497 24.1659 22.59
4 13.0025 24.8219 23.7567
4 13.0325 26.3502 23.6388
4 12.2851 27.0062 24.8065
3 12.3139 28.5346 24.6893
3 9.10819 19.372 22.2046
4 9.76291 20.2528 21.1441
4 9.14729 20.0043 19.7624
4 9.80694 20.8904 18.6993
4 9.19055 20.6417 17.317
3 9.84988 21.5269 16.2529
3 5.39946 4.82321 0.629505
4 4.18831 5.59282 1.14903
4 4.61081 6.91649 1.79646
4 3.39217 7.68723 2.31732
4 3.81521 9.01175 2.96477
3 2.59737 9.78313 3.4866
3 3.1601 25.8239 17.528
4 4.68616 25.8186 17.5427
4 5.22949 24.4652 18.015
4 6.76252 24.4629 18.0288
4 7.30586 23.1086 18.501
3 8.8389 23.1053 18.5158
3 10.6388 1.63495 21.987
4 11.7542 2.31641 21.1993
4 12.7664 2.9826 22.1383
4 13.8855 3.66621 21.3442
4 14.8982 4.33241 22.2839
3 16.0176 5.01694 21.4909
3 22.4291 5.57262 10.7726
4 23.9387 5.35237 10.7328
4 24.307 3.95478 11.2436
4 25.8239 3.73653 11.2024
4 26.192 2.33795 11.7132
3 27.7088 2.11876 11.673
3 26.6846 13.3183 0.327681
4 28.0016 13.7485 0.967691
4 28.6764 14.857 0.151764
4 29.9989 15.287 0.797075
4 0.673721 16.3963 89.9806
3 1.99675 16.8267 0.624681
3 23.0591 27.7477 28.0646
4 22.2842 26.6204 27.388
4 22.9973 25.2752 27.566
4 22.2166 24.1449 26.8854
4 22.9302 22.799 27.064
3 22.1507 21.668 26.3832
3 14.1537 9.99395 4.62397
4 14.4368 9.2395 5.92002
4 15.9387 8.98887 6.09672
4 16.2199 8.23092 7.39934
4 17.7228 7.98058 7.57602
3 18.0052 7.22209 8.87809
3 4.91904 16.8548 16.9117
4 6.04891 16.8041 15.887
4 6.09542 15.4434 15.1826
4 7.23127 15.3955 14.154
4 7.27735 14.0341 13.4491
3 8.41328 13.9848 12.4207
3 5.22984 17.7412 12.4178
4 6.06661 17.3645 11.1984
4 6.25744 15.8463 11.1067
4 7.09829 15.471 9.88095
4 7.28878 13.9519 9.78933
3 8.13007 13.5754 8.56418
1 5.70955 8.06327 65.4688
2 4.72319 8.10612 65.6276
2 5.88315 7.80549 64.5183
1 10.6302 23.4922 54.1053
2 10.721 23.1406 55.037
2 9.83006 24.0895 54.0509
1 18.6826 11.6091 57.326
2 18.1716 12.2802 57.8631
2 19.3523 11.1533 57.9123
1 0.954924 3.02842 58.1317
2 1.00913 2.03255 58.2044
2 0.114625 3.34926 58.5687
1 11.978 3.71731 66.1827
2 11.8321 3.58358 67.1629
2 11.9337 2.83423 65.7156
1 0.957824 5.98282 59.0308
2 -0.0285384 6.02324 59.1903
2 1.13145 5.73369 58.078
1 24.3023 9.83015 61.9749
2 23.3136 9.97406 62.0176
2 24.7223 10.5596 61.435
1 9.97594 10.6543 48.8876
2 10.2273 10.2585 48.0043
2 9.92027 11.6491 48.8033
1 17.8341 13.9762 55.2058
2 17.4934 14.8813 55.4599
2 17.2288 13.5728 54.5195
1 20.6599 21.2227 62.3508
2 19.8021 21.706 62.5258
2 20.8687 21.2575 61.3735
1 19.0936 28.98 56.0751
2 18.1108 29.0422 56.2493
2 19.2472 28.7096 55.1247
1 25.1417 15.1755 54.7221
2 25.0826 15.8622 53.9977
2 25.8851 14.5387 54.5179
1 19.5746 10.5333 60.9708
2 19.714 10.8856 60.0453
2 18.6298 10.2209 61.0698
1 19.262 5.03977 54.3599
2 18.5572 4.43361 53.9912
2 19.6411 5.59776 53.6217
1 11.0734 28.5718 60.5638
2 11.305 28.7929 59.6165
2 11.8795 28.6977 61.142
1 12.6847 20.9486 48.8853
2 11.9624 20.905 49.5755
2 12.3951 20.4506 48.0679
1 9.47369 3.55142 71.1968
2 8.49755 3.63734 71.3963
2 9.59492 3.22649 70.2589
1 6.21603 23.5652 67.8631
2 5.2755 23.8999 67.8046
2 6.43695 23.0458 67.0376
1 15.7385 25.9991 54.0252
2 14.7503 26.0672 53.8885
2 16.2062 26.1418 53.1529
1 28.0493 24.0139 70.5023
2 28.3624 23.1414 70.127
2 27.5604 23.8518 71.3595
1 28.3479 26.8053 46.9997
2 27.3547 26.7915 47.1156
2 28.5796 26.5075 46.0737
1 26.8205 6.42842 62.8881
2 26.3804 7.28263 63.165
2 26.297 6.00896 62.1464
1 1.09586 2.37935 72.974
2 0.104959 2.24489 72.9778
2 1.38496 2.70187 72.0726
1 23.7272 5.88357 54.2409
2 24.4904 6.26629 54.7616
2 23.9086 5.98219 53.2624
1 3.47814 14.5383 54.9968
2 2.61062 15.0076 54.8321
2 3.72764 14.0056 54.1882
1 12.5611 26.5712 74.2513
2 12.921 25.8732 74.8704
2 12.643 27.471 74.6799
1 19.5371 8.81182 54.8461
2 19.6384 9.12657 53.9024
2 19.5675 7.81256 54.8693
1 17.2167 10.3419 73.901
2 16.574 9.57701 73.8576
2 18.1462 9.99038 74.0123
1 12.2903 2.87366 55.2302
2 12.2335 3.47296 56.0287
2 12.7976 2.04597 55.4701
1 22.8318 19.5312 46.2171
2 21.8583 19.6571 46.4081
2 22.9451 19.1557 45.2972
1 12.6491 14.1251 47.0392
2 11.6552 14.086 47.142
2 12.8935 13.9367 46.088
1 1.76389 25.0992 61.732
2 1.04462 24.5721 62.1845
2 1.52009 25.2404 60.7725
1 21.9335 25.2853 67.8594
2 22.0296 26.264 68.0408
2 21.6253 24.8212 68.6898
1 27.5857 26.4953 53.7662
2 27.6042 26.7525 52.8
2 27.037 25.6671 53.8801
1 2.43416 6.66278 63.2396
2 3.20209 6.14634 63.6185
2 2.10255 7.31511 63.9211
1 29.4154 7.56973 49.5803
2 28.9253 8.33361 49.1603
2 0.252692 7.38725 49.0649
1 13.5743 3.87185 48.2405
2 13.1915 3.75343 49.1567
2 12.8751 4.24915 47.6333
1 26.6389 22.7935 59.1614
2 26.4822 22.1549 59.9148
2 27.3927 23.4073 59.396
1 17.9851 4.2253 67.3753
2 18.7147 3.58342 67.1396
2 18.2465 4.74247 68.1903
1 8.87631 14.9925 58.3624
2 8.24443 15.2177 59.104
2 8.40883 15.0932 57.4841
1 7.54258 11.5924 71.2343
2 7.65127 10.9011 71.9487
2 8.40329 12.0875 71.1159
1 15.1548 24.9891 74.1807
2 14.7909 24.1369 74.5565
2 16.0065 24.801 73.6917
1 24.1539 22.3387 55.3017
2 24.008 21.618 55.9794
2 24.092 21.9494 54.3826
1 24.4386 2.30581 45.9275
2 23.4991 2.05757 45.6916
2 24.5427 3.29927 45.8806
1 7.14992 29.2925 66.9057
2 7.04554 28.5909 66.2008
2 7.38772 28.8589 67.7749
1 17.9595 27.8616 62.4403
2 17.9504 27.7041 61.4529
2 17.3675 27.1927 62.89
1 4.71723 5.6522 70.3156
2 4.99997 5.24712 69.4462
2 5.02078 5.06923 71.0693
1 6.72321 0.9154 46.7768
2 6.06078 1.04716 47.5143
2 6.28046 1.08623 45.8966
1 23.6828 9.75451 49.7796
2 22.7819 10.0193 50.1234
2 23.7467 9.97675 48.8067
1 23.3902 16.9772 60.4209
2 22.7176 16.3935 60.8759
2 24.3054 16.7567 60.7583
1 13.0358 28.339 46.3806
2 13.0952 28.4985 47.3659
2 12.109 28.0458 46.1457
1 1.59289 21.0852 59.1471
2 1.43563 21.4006 60.0829
2 1.51135 21.8574 58.5169
1 4.69719 16.7172 70.7014
2 4.04791 17.3595 70.2942
2 4.19686 16.0015 71.1886
1 12.4951 21.8287 62.2969
2 12.392 22.1947 63.2218
2 13.2556 22.2892 61.8391
1 6.29307 21.87 72.8813
2 5.84297 21.0616 72.5019
2 7.25696 21.8706 72.615
1 12.2197 24.958 68.9303
2 11.253 24.7076 68.8762
2 12.5873 25.0692 68.007
1 11.5094 29.3719 70.5953
2 10.5293 29.2244 70.7282
2 11.7494 29.1789 69.6439
1 19.416 25.0453 46.3872
2 19.437 25.9939 46.0715
2 19.0622 24.4591 45.6584
1 2.18269 28.6795 64.0021
2 1.18652 28.7561 64.0441
2 2.55246 29.434 63.46
1 26.6807 17.972 61.663
2 27.4362 18.6227 61.5872
2 26.8922 17.1523 61.1308
1 2.72556 22.7357 49.2655
2 2.85033 22.6493 48.2771
2 2.6377 23.7021 49.5071
1 24.1307 14.3536 73.7543
2 23.1356 14.3901 73.6626
2 24.5159 13.8253 72.9977
1 28.7191 6.35902 74.2341
2 27.7296 6.23374 74.163
2 29.1513 6.09531 73.3717
1 5.38624 0.500204 61.1481
2 4.39467 0.586514 61.2447
2 5.60685 0.217528 60.2146
1 18.5143 12.8737 51.1629
2 18.4402 12.7743 52.1552
2 19.0599 13.6841 50.949
1 10.1632 17.3639 60.2257
2 9.23113 17.4485 60.5778
2 10.1375 16.9763 59.3043
1 29.651 1.93251 50.1859
2 28.7245 1.78875 50.5336
2 0.179282 1.08944 50.2865
1 21.6701 1.44973 56.1429
2 21.0454 0.672432 56.218
2 22.2271 1.35124 55.3183
1 29.2914 5.52259 62.7583
2 28.2994 5.39976 62.7847
2 29.61 5.45997 61.8125
1 4.44659 7.44496 62.998
2 3.50768 7.62429 63.2917
2 4.49521 7.47622 61.9997
1 24.3069 1.23634 69.9159
2 23.3434 1.50271 69.8863
2 24.6975 1.29604 68.9973
1 11.3991 2.42999 71.1249
2 11.0306 1.72659 70.5171
2 12.3369 2.19327 71.3787
1 1.47337 2.12275 53.0053
2 0.476768 2.08211 52.9338
2 1.87883 1.96563 52.1048
1 22.3333 23.5576 57.7735
2 21.36 23.7637 57.8747
2 22.4813 23.058 56.92
1 1.95362 3.00244 50.7187
2 2.44445 2.61279 49.9394
2 2.60123 3.20402 51.4535
1 22.1204 13.9482 69.7527
2 22.2449 12.9913 69.4901
2 22.5465 14.5398 69.0682
1 9.48316 10.8807 51.0153
2 9.51145 9.90654 50.7913
2 9.48583 10.9945 52.0088
1 1.78251 15.5044 48.8856
2 1.71831 14.9613 49.7228
2 0.866367 15.6518 48.5128
1 9.22176 28.7775 49.1995
2 8.46379 28.3626 49.7028
2 8.97412 28.8626 48.2344
1 11.1801 27.8082 55.7482
2 10.9873 27.4629 56.6667
2 10.852 27.1512 55.0695
1 19.1262 17.6565 61.318
2 18.1409 17.6991 61.4834
2 19.2935 17.4103 60.3633
1 29.128 28.5739 60.119
2 29.2673 27.5837 60.1302
2 28.1525 28.7743 60.2098
1 18.2345 20.2491 72.6015
2 17.3283 19.8263 72.6117
2 18.6506 20.1238 71.7009
1 16.0908 27.0638 57.65
2 15.3181 27.4018 57.1128
2 16.8409 26.8173 57.0364
1 24.8604 28.5289 62.5565
2 25.2279 28.5369 61.6265
2 24.8573 27.5918 62.9057
1 20.1647 4.97877 59.3794
2 20.473 4.80342 60.3144
2 19.9849 5.95585 59.2655
1 4.45424 15.0883 52.2534
2 5.11962 14.7904 51.5689
2 3.81789 14.3415 52.4468
1 12.5359 25.8518 64.2684
2 12.0452 25.7019 63.4101
2 13.2423 26.5462 64.1316
1 17.3071 4.87171 46.1539
2 16.9486 5.75347 46.4604
2 17.0113 4.15421 46.7845
1 26.625 21.4088 69.1182
2 26.2804 22.1407 69.7061
2 27.2732 20.8464 69.6315
1 11.4285 25.4584 47.8395
2 11.225 25.78 46.9148
2 10.8227 24.6963 48.0681
1 21.3834 29.2712 49.5247
2 20.9208 29.148 48.6468
2 22.3699 29.1655 49.3993
1 14.179 24.9305 64.3285
2 13.1843 24.8715 64.4118
2 14.5903 24.9318 65.24
1 4.90367 13.3838 66.8123
2 4.99215 12.5427 66.2786
2 5.35811 14.1333 66.331
1 25.2382 6.39016 45.2654
2 25.5407 5.75218 44.5572
2 24.2901 6.18938 45.512
1 9.02213 10.9266 62.2775
2 8.18242 10.983 62.8176
2 9.25299 9.96651 62.1196
1 2.66566 12.5941 55.9131
2 3.50249 12.6255 55.3665
2 2.0791 11.8548 55.5824
1 17.6269 5.34375 57.5919
2 16.6635 5.10287 57.474
2 18.081 5.34738 56.701
1 10.0682 1.71452 60.1084
2 9.37786 2.09102 59.4907
2 10.9537 1.69137 59.6443
1 25.4903 9.53569 72.3502
2 25.5201 10.5089 72.5782
2 24.5929 9.1647 72.5892
1 11.7277 25.1104 73.8216
2 10.9995 25.7903 73.736
2 11.9307 24.7243 72.9218
1 19.2742 22.3726 54.202
2 18.761 21.9617 54.9555
2 18.9188 22.0317 53.3317
1 5.67982 26.8971 57.2622
2 5.364 26.0081 57.5938
2 6.60244 26.8046 56.8878
1 26.0099 25.7949 59.7771
2 26.714 25.5361 59.1159
2 25.9952 26.7899 59.8761
1 23.6179 6.4285 51.1657
2 23.2973 5.63556 50.6475
2 24.389 6.1599 51.7429
1 24.8655 13.1212 56.1514
2 25.3203 13.7365 56.7953
2 25.5507 12.678 55.5734
1 15.9331 11.5263 57.3641
2 15.4385 12.3949 57.3327
2 16.9133 11.7039 57.4513
1 21.7116 16.1924 49.3569
2 22.0924 15.2806 49.5106
2 21.5711 16.334 48.377
1 10.7978 6.69816 67.0901
2 10.0489 6.24741 67.5758
2 10.439 7.15904 66.2784
1 19.3376 22.0221 73.2953
2 20.1412 22.3374 72.7905
2 19.5009 21.0967 73.6374
1 7.91838 19.0068 69.1263
2 8.40733 18.2489 68.6945
2 7.41786 18.6694 69.9236
1 9.59104 7.27298 66.5767
2 8.87617 7.77598 67.0624
2 9.23155 6.38951 66.2763
1 22.8172 4.73913 55.4307
2 21.864 4.74944 55.7329
2 22.8616 4.4383 54.4781
1 4.05922 16.4657 63.1215
2 3.06914 16.4428 63.26
2 4.2735 16.1539 62.1958
1 0.174103 4.51919 47.8393
2 30.0123 5.39609 47.3867
2 29.2977 4.09641 48.0699
1 5.6293 15.1541 60.0161
2 5.08605 14.6293 60.6714
2 6.37368 14.5842 59.6682
1 10.1078 1.57464 73.3234
2 9.50922 1.27542 72.5804
2 10.6557 2.35309 73.0171
1 2.57726 4.09404 56.1784
2 2.77978 5.0712 56.1142
2 3.36536 3.56853 55.8579
1 8.61295 6.31457 44.7509
2 8.5603 5.64922 45.4955
2 9.21646 7.06605 45.0174
1 22.917 5.62541 66.5679
2 23.4493 6.41767 66.2696
2 22.151 5.93207 67.1329
1 10.6403 28.005 51.8306
2 9.87155 27.4148 51.5843
2 10.6779 28.7827 51.2031
1 1.64845 2.98569 73.1336
2 0.762341 2.54173 73.2666
2 1.87255 2.99721 72.1591
1 3.73595 28.134 65.4095
2 4.52697 28.1239 64.7978
2 3.09118 28.8368 65.1089
1 1.21316 14.5202 50.3562
2 1.16203 14.7534 49.3851
2 1.14106 15.354 50.9035
1 8.8932 29.9495 48.3551
2 8.1623 0.503306 48.754
2 8.85461 0.0149638 47.358
1 9.77987 9.25164 57.2417
2 10.0094 8.2911 57.3987
2 8.84525 9.31816 56.8923
1 6.3794 3.65852 52.3368
2 5.61985 3.90468 52.9389
2 6.02289 3.40129 51.4386
1 8.2448 11.8068 45.5172
2 7.41964 11.2455 45.4535
2 8.85924 11.5832 44.7606
1 24.3406 19.2221 57.2854
2 24.1073 18.5033 57.9403
2 23.7975 19.1045 56.454
1 7.93764 19.6764 65.2668
2 7.37832 20.1811 64.6092
2 8.80152 19.4136 64.8371
1 22.4705 18.8788 51.5251
2 21.6297 19.4103 51.422
2 22.9948 18.916 50.6744
1 29.4805 26.9826 73.1299
2 29.4047 26.0055 72.9312
2 29.9045 27.1084 74.0268
1 7.67443 23.3045 45.3381
2 6.68616 23.3045 45.4907
2 7.86744 23.0033 44.4042
1 22.8227 6.37986 60.7126
2 23.0706 5.41187 60.7518
2 23.6356 6.93896 60.8759
1 1.34912 15.4226 48.3285
2 1.27668 15.6101 47.349
2 1.5896 14.4619 48.4671
1 11.3903 20.5436 45.519
2 10.7674 19.7776 45.3601
2 12.3258 20.2625 45.3047
1 20.4837 26.4257 63.0021
2 20.4581 26.9605 62.1575
2 19.9168 25.6087 62.8965
1 18.3989 19.8571 55.3495
2 17.5396 20.0908 54.8947
2 18.2778 19.9144 56.3405
1 22.8205 24.2103 67.8652
2 22.1849 24.5426 67.1684
2 22.4194 24.3415 68.7719
1 9.86035 17.874 66.2906
2 9.8344 18.5946 66.9835
2 10.6941 17.3334 66.403
1 23.5704 23.0568 45.5922
2 22.6269 22.7847 45.4031
2 24.1875 22.5742 44.9707
1 9.60772 0.880934 64.1636
2 9.657 1.15152 65.125