LAMMPS (11 Aug 2017)
OMP_NUM_THREADS environment is not set. Defaulting to 1 thread. (../comm.cpp:90)
  using 1 OpenMP thread(s) per MPI task
Reading data file ...
  orthogonal box = (0 0 0) to (24.2576 24.2576 24.2576)
  1 by 1 by 1 MPI processor grid
  reading atoms ...
  584 atoms
  scanning bonds ...
  4 = max bonds/atom
  reading bonds ...
  696 bonds
Finding 1-2 1-3 1-4 neighbors ...
  special bond factors lj:   0          0          0         
  special bond factors coul: 0          0          0         
  4 = max # of 1-2 neighbors
  6 = max # of 1-3 neighbors
  16 = max # of 1-4 neighbors
  20 = max # of special neighbors
584 atoms in group faujasite
Read molecule CO2:
  3 atoms with 5 types
  2 bonds with 2 types
  0 angles with 0 types
  0 dihedrals with 0 types
  0 impropers with 0 types
0 atoms in group CO2
384 atoms in group O
192 atoms in group Si
8 atoms in group sodalite
Setting atom values ...
  384 settings made for charge
Setting atom values ...
  192 settings made for charge
Setting atom values ...
  8 settings made for charge
1 rigid bodies with 584 atoms
Ewald initialization ...
WARNING: Using 12-bit tables for long-range coulomb (../kspace.cpp:321)
  G vector (1/distance) = 0.238294
  estimated absolute RMS force accuracy = 0.00333133
  estimated relative force accuracy = 1.00322e-05
  KSpace vectors: actual max1d max3d = 462 6 1098
                  kxmax kymax kzmax  = 6 6 6
0 atoms in group FixGCMC:gcmc_exclusion_group:fxgc
0 atoms in group FixGCMC:rotation_gas_atoms:fxgc
WARNING: Neighbor exclusions used with KSpace solver may give inconsistent Coulombic energies (../neighbor.cpp:472)
Neighbor list info ...
  update every 1 steps, delay 0 steps, check no
  max neighbors/atom: 100000, page size: 5000000
  master list distance cutoff = 14
  ghost atom cutoff = 14
  binsize = 7, bins = 4 4 4
  1 neighbor lists, perpetual/occasional/extra = 1 0 0
  (1) pair lj/cut/coul/long, perpetual
      attributes: half, newton on
      pair build: half/bin/newton
      stencil: half/bin/3d/newton
      bin: standard
Setting up Verlet run ...
  Unit style    : real
  Current step  : 0
  Time step     : 1
Per MPI rank memory allocation (min/avg/max) = 36.08 | 36.08 | 36.08 Mbytes
Step v_CO2ad PotEng Density Temp 
       0            0   -7912.2666    1.3420473            0 
      50            4    -7923.424    1.3625219    142.61148 
     100            6    -7929.291    1.3727593     167.5482 
     150            8    -7937.684    1.3829966    144.32114 
     200           11   -7948.5476    1.3983526    129.34579 
     250           14   -7952.3138    1.4137087    118.00378 
     300           16   -7958.3973     1.423946    111.02487 
     350           19   -7967.3526     1.439302    116.54791 
     400           20   -7972.5928    1.4444207    112.67925 
     450           21   -7975.8287    1.4495394    111.80318 
     500           23   -7986.0235    1.4597767    125.37096 
     550           26   -7999.3348    1.4751327    120.53861 
     600           26   -7998.4123    1.4751327    120.53861 
     650           27   -8002.7847    1.4802514    120.05919 
     700           29   -8008.6817    1.4904887    119.18607 
     750           31   -8022.6458    1.5007261    115.06306 
     800           31   -8022.3522    1.5007261    115.06306 
     850           31   -8023.2553    1.5007261    115.06306 
     900           32   -8028.6634    1.5058447    113.25791 
     950           35   -8036.6313    1.5212008    114.47257 
    1000           37   -8045.6003    1.5314381    111.47935 
    1050           37   -8047.4163    1.5314381    111.47935 
    1100           37   -8047.7299    1.5314381    111.47935 
    1150           37   -8048.2772    1.5314381    111.47935 
    1200           39    -8054.585    1.5416754    107.81336 
    1250           40   -8060.2042    1.5467941     105.2607 
    1300           40   -8061.0793    1.5467941     105.2607 
    1350           40   -8061.8521    1.5467941     105.2607 
    1400           40   -8064.1336    1.5467941     105.2607 
    1450           40   -8063.0365    1.5467941     105.2607 
    1500           40   -8056.0653    1.5467941     105.2607 
    1550           40   -8057.2809    1.5467941     105.2607 
    1600           41    -8058.294    1.5519128    104.26314 
    1650           41   -8056.6222    1.5519128    104.26314 
    1700           41   -8055.9655    1.5519128    104.26314 
    1750           41   -8056.5831    1.5519128    104.26314 
    1800           42   -8063.9232    1.5570315    102.84265 
    1850           43   -8066.8597    1.5621501    103.81573 
    1900           43   -8070.3001    1.5621501    103.81573 
    1950           43   -8074.2259    1.5621501    101.78128 
    2000           45   -8084.1698    1.5723875     100.6783 
    2050           46   -8089.9221    1.5775062    103.10953 
    2100           46    -8089.849    1.5775062    103.10953 
    2150           46   -8090.2564    1.5775062    103.10953 
    2200           47   -8091.9632    1.5826248    103.59433 
    2250           48   -8095.5814    1.5877435    102.45216 
    2300           48   -8095.5769    1.5877435    102.45216 
    2350           48    -8097.063    1.5877435    102.45216 
    2400           49   -8096.3218    1.5928622    101.07273 
    2450           48    -8096.621    1.5877435    102.45216 
    2500           48   -8097.5511    1.5877435    102.45216 
    2550           48   -8097.1902    1.5877435    102.45216 
    2600           48    -8099.225    1.5877435    102.45216 
    2650           49   -8100.8531    1.5928622    101.60989 
    2700           49   -8101.9092    1.5928622    101.60989 
    2750           49   -8102.5788    1.5928622    101.60989 
    2800           49    -8103.375    1.5928622    101.60989 
    2850           49   -8104.1775    1.5928622    101.60989 
    2900           50   -8106.3249    1.5979808    103.75837 
    2950           51    -8114.738    1.6030995    101.84215 
    3000           51    -8114.518    1.6030995    101.84215 
    3050           51   -8114.5426    1.6030995    101.84215 
    3100           51   -8113.0095    1.6030995    101.84215 
    3150           51   -8113.5932    1.6030995    101.84215 
    3200           51   -8115.4797    1.6030995    101.84215 
    3250           51   -8116.1407    1.6030995    101.84215 
    3300           52   -8120.1997    1.6082182    100.52674 
    3350           52   -8117.9374    1.6082182    100.52674 
    3400           52   -8117.4376    1.6082182    100.52674 
    3450           52   -8122.5566    1.6082182    100.52674 
    3500           51   -8120.0269    1.6030995    98.703817 
    3550           51    -8118.796    1.6030995    98.703817 
    3600           51   -8118.7249    1.6030995    98.703817 
    3650           51   -8116.6287    1.6030995    98.703817 
    3700           51    -8115.022    1.6030995    98.703817 
    3750           51   -8115.5043    1.6030995    98.703817 
    3800           52   -8120.7541    1.6082182    102.75093 
    3850           52   -8120.5481    1.6082182    102.75093 
    3900           52   -8122.3955    1.6082182    102.75093 
    3950           53   -8126.8633    1.6133369    102.69402 
    4000           53   -8123.7422    1.6133369    102.69402 
    4050           53   -8126.9665    1.6133369    102.69402 
    4100           53   -8124.6991    1.6133369    102.69402 
    4150           53    -8125.274    1.6133369    102.69402 
    4200           53   -8127.1925    1.6133369    102.69402 
    4250           53   -8127.9078    1.6133369    102.69402 
    4300           53   -8128.9726    1.6133369    102.69402 
    4350           53   -8126.5444    1.6133369    102.69402 
    4400           53   -8126.8547    1.6133369    102.69402 
    4450           54   -8127.8514    1.6184555    104.41777 
    4500           54   -8129.2845    1.6184555    104.41777 
    4550           54   -8131.9094    1.6184555    104.41777 
    4600           54   -8128.7907    1.6184555    104.41777 
    4650           54   -8130.3189    1.6184555    104.41777 
    4700           54   -8131.2948    1.6184555    104.41777 
    4750           54   -8131.8999    1.6184555    104.41777 
    4800           54   -8130.0819    1.6184555    104.41777 
    4850           54   -8131.4296    1.6184555    104.41777 
    4900           54   -8133.8693    1.6184555    104.41777 
    4950           54   -8132.3102    1.6184555    104.41777 
    5000           54   -8131.3275    1.6184555    104.41777 
Loop time of 399.653 on 1 procs for 5000 steps with 746 atoms

Performance: 1.081 ns/day, 22.203 hours/ns, 12.511 timesteps/s
99.8% CPU use with 1 MPI tasks x 1 OpenMP threads

MPI task timing breakdown:
Section |  min time  |  avg time  |  max time  |%varavg| %total
---------------------------------------------------------------
Pair    | 6.4821     | 6.4821     | 6.4821     |   0.0 |  1.62
Bond    | 0.0016632  | 0.0016632  | 0.0016632  |   0.0 |  0.00
Kspace  | 13.013     | 13.013     | 13.013     |   0.0 |  3.26
Neigh   | 44.816     | 44.816     | 44.816     |   0.0 | 11.21
Comm    | 20.29      | 20.29      | 20.29      |   0.0 |  5.08
Output  | 0.0036857  | 0.0036857  | 0.0036857  |   0.0 |  0.00
Modify  | 314.98     | 314.98     | 314.98     |   0.0 | 78.81
Other   |            | 0.06924    |            |       |  0.02

Nlocal:    746 ave 746 max 746 min
Histogram: 1 0 0 0 0 0 0 0 0 0
Nghost:    6957 ave 6957 max 6957 min
Histogram: 1 0 0 0 0 0 0 0 0 0
Neighs:    89806 ave 89806 max 89806 min
Histogram: 1 0 0 0 0 0 0 0 0 0

Total # of neighbors = 89806
Ave neighs/atom = 120.383
Ave special neighs/atom = 10.4558
Neighbor list builds = 19990
Dangerous builds not checked
Total wall time: 0:06:39
