LAMMPS (11 Aug 2017)
OMP_NUM_THREADS environment is not set. Defaulting to 1 thread. (../comm.cpp:90)
  using 1 OpenMP thread(s) per MPI task
Reading data file ...
  orthogonal box = (0 0 0) to (24.2576 24.2576 24.2576)
  1 by 1 by 1 MPI processor grid
  reading atoms ...
  584 atoms
  scanning bonds ...
  4 = max bonds/atom
  reading bonds ...
  696 bonds
Finding 1-2 1-3 1-4 neighbors ...
  special bond factors lj:   0          0          0         
  special bond factors coul: 0          0          0         
  4 = max # of 1-2 neighbors
  6 = max # of 1-3 neighbors
  16 = max # of 1-4 neighbors
  20 = max # of special neighbors
584 atoms in group faujasite
Read molecule CO2:
  3 atoms with 5 types
  2 bonds with 2 types
  0 angles with 0 types
  0 dihedrals with 0 types
  0 impropers with 0 types
0 atoms in group CO2
384 atoms in group O
192 atoms in group Si
8 atoms in group sodalite
Setting atom values ...
  384 settings made for charge
Setting atom values ...
  192 settings made for charge
Setting atom values ...
  8 settings made for charge
1 rigid bodies with 584 atoms
Ewald initialization ...
WARNING: Using 12-bit tables for long-range coulomb (../kspace.cpp:321)
  G vector (1/distance) = 0.238294
  estimated absolute RMS force accuracy = 0.00333133
  estimated relative force accuracy = 1.00322e-05
  KSpace vectors: actual max1d max3d = 462 6 1098
                  kxmax kymax kzmax  = 6 6 6
0 atoms in group FixGCMC:gcmc_exclusion_group:fxgc
0 atoms in group FixGCMC:rotation_gas_atoms:fxgc
WARNING: Neighbor exclusions used with KSpace solver may give inconsistent Coulombic energies (../neighbor.cpp:472)
Neighbor list info ...
  update every 1 steps, delay 0 steps, check no
  max neighbors/atom: 100000, page size: 5000000
  master list distance cutoff = 14
  ghost atom cutoff = 14
  binsize = 7, bins = 4 4 4
  1 neighbor lists, perpetual/occasional/extra = 1 0 0
  (1) pair lj/cut/coul/long, perpetual
      attributes: half, newton on
      pair build: half/bin/newton
      stencil: half/bin/3d/newton
      bin: standard
Setting up Verlet run ...
  Unit style    : real
  Current step  : 0
  Time step     : 1
Per MPI rank memory allocation (min/avg/max) = 36.08 | 36.08 | 36.08 Mbytes
Step v_CO2ad PotEng Density Temp 
       0            0   -7912.2666    1.3420473            0 
      50            0   -7912.2666    1.3420473            0 
     100            2   -7917.5919    1.3522846    32.360955 
     150            0   -7912.2666    1.3420473            0 
     200            0   -7912.2666    1.3420473            0 
     250            1   -7914.3135    1.3471659    6.4204493 
     300            0   -7912.2666    1.3420473            0 
     350            1   -7915.6036    1.3471659    35.472466 
     400            1   -7916.4307    1.3471659    62.507716 
     450            3   -7921.8977    1.3574033    58.702847 
     500            1   -7916.4264    1.3471659    13.879755 
     550            0   -7912.2666    1.3420473            0 
     600            0   -7912.2666    1.3420473            0 
     650            0   -7912.2666    1.3420473            0 
     700            3   -7921.1082    1.3574033    33.807418 
     750            1   -7915.8994    1.3471659    166.91004 
     800            3   -7921.4333    1.3574033    114.69379 
     850            0   -7912.2666    1.3420473            0 
     900            0   -7912.2666    1.3420473            0 
     950            0   -7912.2666    1.3420473            0 
    1000            0   -7912.2666    1.3420473            0 
    1050            0   -7912.2666    1.3420473            0 
    1100            0   -7912.2666    1.3420473            0 
    1150            0   -7912.2666    1.3420473            0 
    1200            0   -7912.2666    1.3420473            0 
    1250            0   -7912.2666    1.3420473            0 
    1300            2     -7919.32    1.3522846     10.52428 
    1350            0   -7912.2666    1.3420473            0 
    1400            1    -7915.041    1.3471659   0.26422761 
    1450            0   -7912.2666    1.3420473            0 
    1500            0   -7912.2666    1.3420473            0 
    1550            0   -7912.2666    1.3420473            0 
    1600            1    -7915.316    1.3471659    39.014523 
    1650            0   -7912.2666    1.3420473            0 
    1700            1    -7914.591    1.3471659    35.263575 
    1750            2   -7918.7255    1.3522846    48.082808 
    1800            1   -7915.7109    1.3471659    21.040187 
    1850            1   -7915.1764    1.3471659    33.562444 
    1900            1   -7914.8538    1.3471659    40.657265 
    1950            0   -7912.2666    1.3420473            0 
    2000            0   -7912.2666    1.3420473            0 
    2050            0   -7912.2666    1.3420473            0 
    2100            0   -7912.2666    1.3420473            0 
    2150            2   -7917.9351    1.3522846    106.72645 
    2200            1   -7914.7368    1.3471659    47.552637 
    2250            2   -7919.8728    1.3522846    246.95113 
    2300            1   -7916.0845    1.3471659    257.95967 
    2350            1   -7915.8248    1.3471659    257.95967 
    2400            2   -7919.5417    1.3522846    106.34273 
    2450            2   -7918.4795    1.3522846    29.829386 
    2500            1   -7915.2369    1.3471659    108.75687 
    2550            0   -7912.2666    1.3420473            0 
    2600            1   -7914.6088    1.3471659    50.866019 
    2650            1   -7915.5288    1.3471659     57.65116 
    2700            0   -7912.2666    1.3420473            0 
    2750            1   -7915.4371    1.3471659     171.8176 
    2800            1   -7915.2582    1.3471659    5.1614054 
    2850            1   -7915.6549    1.3471659    114.31758 
    2900            1   -7915.5667    1.3471659    58.620522 
    2950            1   -7915.0635    1.3471659    105.22638 
    3000            0   -7912.2666    1.3420473            0 
    3050            0   -7912.2666    1.3420473            0 
    3100            0   -7912.2666    1.3420473            0 
    3150            0   -7912.2666    1.3420473            0 
    3200            1   -7915.4087    1.3471659    13.718922 
    3250            0   -7912.2666    1.3420473            0 
    3300            1   -7915.4883    1.3471659    105.62911 
    3350            0   -7912.2666    1.3420473            0 
    3400            0   -7912.2666    1.3420473            0 
    3450            0   -7912.2666    1.3420473            0 
    3500            1   -7915.7904    1.3471659    87.545564 
    3550            1   -7916.2835    1.3471659    146.62122 
    3600            1   -7916.3794    1.3471659    146.62122 
    3650            2   -7917.8854    1.3522846    158.44292 
    3700            0   -7912.2666    1.3420473            0 
    3750            0   -7912.2666    1.3420473            0 
    3800            1   -7914.9394    1.3471659    14.687125 
    3850            0   -7912.2666    1.3420473            0 
    3900            1   -7913.7405    1.3471659    65.307495 
    3950            1     -7915.08    1.3471659    163.37245 
    4000            2   -7918.3368    1.3522846    95.005409 
    4050            1   -7915.4311    1.3471659    26.666269 
    4100            0   -7912.2666    1.3420473            0 
    4150            0   -7912.2666    1.3420473            0 
    4200            1    -7915.382    1.3471659    22.137913 
    4250            1   -7914.9868    1.3471659    56.809889 
    4300            0   -7912.2666    1.3420473            0 
    4350            0   -7912.2666    1.3420473            0 
    4400            2   -7917.6088    1.3522846    169.02958 
    4450            2    -7919.137    1.3522846    116.42114 
    4500            0   -7912.2666    1.3420473            0 
    4550            0   -7912.2666    1.3420473            0 
    4600            1   -7914.9889    1.3471659    76.416761 
    4650            0   -7912.2666    1.3420473            0 
    4700            1   -7915.7651    1.3471659    32.987096 
    4750            0   -7912.2666    1.3420473            0 
    4800            2   -7919.0392    1.3522846    129.73375 
    4850            0   -7912.2666    1.3420473            0 
    4900            0   -7912.2666    1.3420473            0 
    4950            0   -7912.2666    1.3420473            0 
    5000            1   -7915.6806    1.3471659    115.54982 
Loop time of 193.768 on 1 procs for 5000 steps with 587 atoms

Performance: 2.229 ns/day, 10.765 hours/ns, 25.804 timesteps/s
99.9% CPU use with 1 MPI tasks x 1 OpenMP threads

MPI task timing breakdown:
Section |  min time  |  avg time  |  max time  |%varavg| %total
---------------------------------------------------------------
Pair    | 0.10051    | 0.10051    | 0.10051    |   0.0 |  0.05
Bond    | 0.00093865 | 0.00093865 | 0.00093865 |   0.0 |  0.00
Kspace  | 10.23      | 10.23      | 10.23      |   0.0 |  5.28
Neigh   | 22.167     | 22.167     | 22.167     |   0.0 | 11.44
Comm    | 16.182     | 16.182     | 16.182     |   0.0 |  8.35
Output  | 0.0030594  | 0.0030594  | 0.0030594  |   0.0 |  0.00
Modify  | 145.04     | 145.04     | 145.04     |   0.0 | 74.85
Other   |            | 0.04685    |            |       |  0.02

Nlocal:    587 ave 587 max 587 min
Histogram: 1 0 0 0 0 0 0 0 0 0
Nghost:    5465 ave 5465 max 5465 min
Histogram: 1 0 0 0 0 0 0 0 0 0
Neighs:    1479 ave 1479 max 1479 min
Histogram: 1 0 0 0 0 0 0 0 0 0

Total # of neighbors = 1479
Ave neighs/atom = 2.51959
Ave special neighs/atom = 12.7462
Neighbor list builds = 15937
Dangerous builds not checked
Total wall time: 0:03:13
